 DBCSR| CPU Multiplication driver                                           BLAS (U)
 DBCSR| Multrec recursion limit                                              512 (U)
 DBCSR| Multiplication stack size                                           1000 (D)
 DBCSR| Maximum elements for images                                    UNLIMITED (U)
 DBCSR| Multiplicative factor virtual images                                   1 (U)
 DBCSR| Use multiplication densification                                       T (D)
 DBCSR| Multiplication size stacks                                             3 (U)
 DBCSR| Use memory pool for CPU allocation                                     F (U)
 DBCSR| Number of 3D layers                                               SINGLE (U)
 DBCSR| Use MPI memory allocation                                              F (U)
 DBCSR| Use RMA algorithm                                                      F (U)
 DBCSR| Use Communication thread                                               T (U)
 DBCSR| Communication thread load                                             53 (D)
 DBCSR| MPI: My process id                                                     0
 DBCSR| MPI: Number of processes                                               1
 DBCSR| OMP: Current number of threads                                        10
 DBCSR| OMP: Max number of threads                                            10
 DBCSR| Split modifier for TAS multiplication algorithm                  1.0E+00 (U)


  **** **** ******  **  PROGRAM STARTED AT               2025-10-01 15:16:37.880
 ***** ** ***  *** **   PROGRAM STARTED ON                                   Mac
 **    ****   ******    PROGRAM STARTED BY                           jdmusgraves
 ***** **    ** ** **   PROGRAM PROCESS ID                                 74100
  **** **  *******  **  PROGRAM STARTED IN /Users/jdmusgraves/GitHub/local_shake
                                           down_kit

 CP2K| version string:                                       CP2K version 2025.1
 CP2K| source code revision number:                                             
 CP2K| cp2kflags: omp libint fftw3 libxc parallel scalapack no_statm_access     
 CP2K| is freely available from                            https://www.cp2k.org/
 CP2K| Program compiled at                                   2025-01-01 12:26:53
 CP2K| Program compiled on                                                      
 CP2K| Program compiled for                                                arm64
 CP2K| Data directory path      /opt/homebrew/Cellar/cp2k/2025.1/share/cp2k/data
 CP2K| Input file name                               inputs/md_as40se60_melt.inp

 GLOBAL| Force Environment number                                              1
 GLOBAL| Basis set file name                                        BASIS_MOLOPT
 GLOBAL| Potential file name                                      GTH_POTENTIALS
 GLOBAL| MM Potential file name                                     MM_POTENTIAL
 GLOBAL| Coordinate file name                       inputs/as40se60_100_seed.xyz
 GLOBAL| Method name                                                        CP2K
 GLOBAL| Project name                                              as40se60_melt
 GLOBAL| Run type                                                             MD
 GLOBAL| FFT library                                                       FFTW3
 GLOBAL| Diagonalization library                                       ScaLAPACK
 GLOBAL| DGEMM library                                                      BLAS
 GLOBAL| Orthonormality check for eigenvectors                          DISABLED
 GLOBAL| Matrix multiplication library                                 ScaLAPACK
 GLOBAL| All-to-all communication in single precision                          F
 GLOBAL| FFTs using library dependent lengths                                  F
 GLOBAL| Grid backend                                                       AUTO
 GLOBAL| Global print level                                                  LOW
 GLOBAL| MPI I/O enabled                                                       T
 GLOBAL| Total number of message passing processes                             1
 GLOBAL| Number of threads for this process                                   10
 GLOBAL| This output is from process                                           0
 GLOBAL| OpenMP stack size per thread (OMP_STACKSIZE)                    default
 GLOBAL| CPU model name                                                  UNKNOWN
 GLOBAL| CPUID                                                              2000

 MEMORY| system memory details [Kb]
 MEMORY|                        rank 0           min           max       average
 MEMORY| MemTotal                    0             0             0             0
 MEMORY| MemFree                     0             0             0             0
 MEMORY| Buffers                     0             0             0             0
 MEMORY| Cached                      0             0             0             0
 MEMORY| Slab                        0             0             0             0
 MEMORY| SReclaimable                0             0             0             0
 MEMORY| MemLikelyFree               0             0             0             0


 GENERATE|  Preliminary Number of Bonds generated:                             0
 GENERATE|  Achieved consistency in connectivity generation.

 *******************************************************************************
 *******************************************************************************
 **                                                                           **
 **     #####                         ##              ##                      **
 **    ##   ##            ##          ##              ##                      **
 **   ##     ##                       ##            ######                    **
 **   ##     ##  ##   ##  ##   #####  ##  ##   ####   ##    #####    #####    **
 **   ##     ##  ##   ##  ##  ##      ## ##   ##      ##   ##   ##  ##   ##   **
 **   ##  ## ##  ##   ##  ##  ##      ####     ###    ##   ######   ######    **
 **    ##  ###   ##   ##  ##  ##      ## ##      ##   ##   ##       ##        **
 **     #######   #####   ##   #####  ##  ##  ####    ##    #####   ##        **
 **           ##                                                    ##        **
 **                                                                           **
 **                                                ... make the atoms dance   **
 **                                                                           **
 **            Copyright (C) by CP2K developers group (2000-2025)             **
 **                      J. Chem. Phys. 152, 194103 (2020)                    **
 **                                                                           **
 *******************************************************************************


 TOTAL NUMBERS AND MAXIMUM NUMBERS

  Total number of            - Atomic kinds:                                   2
                             - Atoms:                                        100
                             - Shell sets:                                   100
                             - Shells:                                       500
                             - Primitive Cartesian functions:                400
                             - Cartesian basis functions:                   1400
                             - Spherical basis functions:                   1300

  Maximum angular momentum of the orbital basis functions:                     2


 SCF PARAMETERS         Density guess:                                    ATOMIC
                        --------------------------------------------------------
                        max_scf:                                              25
                        max_scf_history:                                       0
                        max_diis:                                              4
                        --------------------------------------------------------
                        eps_scf:                                        5.00E-05
                        eps_scf_history:                                0.00E+00
                        eps_diis:                                       1.00E-01
                        eps_eigval:                                     1.00E-05
                        --------------------------------------------------------
                        level_shift [a.u.]:                             0.000000
                        added MOs                                       200    0
                        --------------------------------------------------------
                        Mixing method:                            BROYDEN_MIXING
                                                charge density mixing in g-space
                        --------------------------------------------------------
                        Smear method:                                FERMI_DIRAC
                        Electronic temperature [K]:                       4000.0
                        Electronic temperature [a.u.]:                  1.27E-02
                        Accuracy threshold:                             1.00E-10
                        --------------------------------------------------------
                        No outer SCF

 MD_PAR| Molecular dynamics protocol (MD input parameters)
 MD_PAR| Ensemble type                                                       NVT
 MD_PAR| Number of time steps                                                400
 MD_PAR| Time step [fs]                                                 0.500000
 MD_PAR| Temperature [K]                                             1500.000000
 MD_PAR| Temperature tolerance [K]                                      0.000000
 MD_PAR| Print MD information every                                    1 step(s)
 MD_PAR| File type   Print frequency [steps]                          File names
 MD_PAR| Coordinates         20  as40se60_melt-as40se60_melt-pos-1.xyz-pos-1.xyz
 MD_PAR| Velocities          20  as40se60_melt-as40se60_melt-vel-1.xyz-vel-1.xyz
 MD_PAR| Energies             1                             as40se60_melt-1.ener
 MD_PAR| Dump                20                          as40se60_melt-1.restart

 ROT| Rotational analysis information
 ROT| Principal axes and moments of inertia [a.u.]
 ROT|                           1                   2                   3
 ROT| Eigenvalues      1.75789868623E+09   1.79391159273E+09   1.91255940231E+09
 ROT|      x             -0.210013670247      0.719449238534     -0.662032515426
 ROT|      y              0.775282068462      0.535099603628      0.335568366386
 ROT|      z             -0.595677742266      0.442787993706      0.670154325510
 ROT| Number of rotovibrational vectors                                        6

 DOF| Calculation of degrees of freedom
 DOF| Number of atoms                                                        100
 DOF| Number of intramolecular constraints                                     0
 DOF| Number of intermolecular constraints                                     0
 DOF| Invariants (translations + rotations)                                    3
 DOF| Degrees of freedom                                                     297

 DOF| Restraints information
 DOF| Number of intramolecular restraints                                      0
 DOF| Number of intermolecular restraints                                      0

 THERMOSTAT| Thermostat information for PARTICLES
 THERMOSTAT| Type of thermostat            Canonical Sampling/Velocity Rescaling
 THERMOSTAT| CSVR time constant [fs]                                  200.000000
 THERMOSTAT| Initial kinetic energy                           0.000000000000E+00
 THERMOSTAT| End of thermostat information for PARTICLES

 MD_VEL| Velocities initialization
 MD_VEL| Initial temperature [K]                                     1500.000000
 MD_VEL| COM velocity            -0.0000000000    -0.0000000000    -0.0000000000

 Number of electrons:                                                        560
 Number of occupied orbitals:                                                280
 Number of molecular orbitals:                                               480

 Number of orbital functions:                                               1300
 Number of independent orbital functions:                                   1300

 Extrapolation method: initial_guess


 SCF WAVEFUNCTION OPTIMIZATION

  Step     Update method      Time    Convergence         Total energy    Change
  ------------------------------------------------------------------------------
     1 NoMix/Diag. 0.20E+00    1.5     0.70996659      -823.7693832245 -8.24E+02
     2 Broy./Diag. 0.20E+00    1.9     0.49890275      -807.3912257032  1.64E+01
     3 Broy./Diag. 0.20E+00    2.0     0.12110427      -807.8583570786 -4.67E-01
     4 Broy./Diag. 0.20E+00    2.0     0.10747601      -808.2747247491 -4.16E-01
     5 Broy./Diag. 0.20E+00    2.0     0.06179482      -808.6918803334 -4.17E-01
     6 Broy./Diag. 0.20E+00    2.1     0.02411914      -808.8477029491 -1.56E-01
     7 Broy./Diag. 0.20E+00    2.1     0.01410186      -808.8225618759  2.51E-02
     8 Broy./Diag. 0.20E+00    2.1     0.00820421      -808.7223718359  1.00E-01
     9 Broy./Diag. 0.20E+00    2.2     0.00485229      -808.6565835287  6.58E-02
    10 Broy./Diag. 0.20E+00    2.1     0.00248213      -808.6154478462  4.11E-02
    11 Broy./Diag. 0.20E+00    2.1     0.00122504      -808.6042131559  1.12E-02
    12 Broy./Diag. 0.20E+00    2.1     0.00070466      -808.6029249209  1.29E-03
    13 Broy./Diag. 0.20E+00    2.1     0.00047592      -808.6055391117 -2.61E-03
    14 Broy./Diag. 0.20E+00    2.1     0.00048094      -808.6085723931 -3.03E-03
    15 Broy./Diag. 0.20E+00    2.1     0.00021087      -808.6095201670 -9.48E-04
    16 Broy./Diag. 0.20E+00    2.1     0.00012299      -808.6099527962 -4.33E-04
    17 Broy./Diag. 0.20E+00    2.1     0.00009366      -808.6094288875  5.24E-04
    18 Broy./Diag. 0.20E+00    2.1     0.00005075      -808.6089543324  4.75E-04
    19 Broy./Diag. 0.20E+00    2.1     0.00003878      -808.6086225190  3.32E-04

  *** SCF run converged in    19 steps ***


  Electronic density on regular grids:       -559.9999999988        0.0000000012
  Core density on regular grids:              559.9999998897       -0.0000001103
  Total charge density on r-space grids:       -0.0000001092
  Total charge density g-space grids:          -0.0000001092

  Overlap energy of the core charge distribution:               0.01878804220932
  Self energy of the core charge distribution:              -1737.24439639931302
  Core Hamiltonian energy:                                    411.95176168082520
  Hartree energy:                                             708.74435992194913
  Exchange-correlation energy:                               -190.47161835149365
  Dispersion energy:                                           -0.71845137320990
  Electronic entropic energy:                                  -0.88906499196876
  Fermi energy:                                                 0.12640405094491

  Total energy:                                              -808.60862251899391

 ENERGY| Total FORCE_EVAL ( QS ) energy [hartree]           -808.608268103482601

 MD_INI| MD initialization
 MD_INI| Potential energy [hartree]                          -0.808608268103E+03
 MD_INI| Kinetic energy [hartree]                             0.705408117717E+00
 MD_INI| Temperature [K]                                             1500.000000
 MD_INI| Cell volume [bohr^3]                                 1.884311149060E+04
 MD_INI| Cell volume [ang^3]                                  2.792261002858E+03
 MD_INI| Cell lengths [bohr]      2.66103675E+01  2.66103675E+01  2.66103675E+01
 MD_INI| Cell lengths [ang]       1.40816000E+01  1.40816000E+01  1.40816000E+01
 MD_INI| Cell angles [deg]        9.00000000E+01  9.00000000E+01  9.00000000E+01

 Number of electrons:                                                        560
 Number of occupied orbitals:                                                440
 Number of molecular orbitals:                                               480

 Number of orbital functions:                                               1300
 Number of independent orbital functions:                                   1300

 Extrapolation method: ASPC


 SCF WAVEFUNCTION OPTIMIZATION

  Step     Update method      Time    Convergence         Total energy    Change
  ------------------------------------------------------------------------------
     1 Broy./Diag. 0.20E+00    1.4     0.01055731      -808.6784452056 -8.09E+02
     2 Broy./Diag. 0.20E+00    1.9     0.00377684      -808.6953628527 -1.69E-02
     3 Broy./Diag. 0.20E+00    1.9     0.00196504      -808.6905007471  4.86E-03
     4 Broy./Diag. 0.20E+00    2.0     0.00098876      -808.6839391663  6.56E-03
     5 Broy./Diag. 0.20E+00    2.0     0.00070735      -808.6804842839  3.45E-03
     6 Broy./Diag. 0.20E+00    2.0     0.00028143      -808.6787984450  1.69E-03
     7 Broy./Diag. 0.20E+00    2.1     0.00012120      -808.6789333985 -1.35E-04
     8 Broy./Diag. 0.20E+00    2.1     0.00008034      -808.6790943395 -1.61E-04
     9 Broy./Diag. 0.20E+00    2.0     0.00004110      -808.6792656811 -1.71E-04

  *** SCF run converged in     9 steps ***


  Electronic density on regular grids:       -559.9999999988        0.0000000012
  Core density on regular grids:              559.9999998896       -0.0000001104
  Total charge density on r-space grids:       -0.0000001092
  Total charge density g-space grids:          -0.0000001092

  Overlap energy of the core charge distribution:               0.01803919214891
  Self energy of the core charge distribution:              -1737.24439639931302
  Core Hamiltonian energy:                                    411.88960861365553
  Hartree energy:                                             708.73136576608670
  Exchange-correlation energy:                               -190.46640385827112
  Dispersion energy:                                           -0.71849791514985
  Electronic entropic energy:                                  -0.88898096377778
  Fermi energy:                                                 0.12640582543188

  Total energy:                                              -808.67926568105224

 ENERGY| Total FORCE_EVAL ( QS ) energy [hartree]           -808.679413662040588

 MD| ***************************************************************************
 MD| Step number                                                               1
 MD| Time [fs]                                                          0.500000
 MD| Conserved quantity [hartree]                            -0.807903259134E+03
 MD| ---------------------------------------------------------------------------
 MD|                                          Instantaneous             Averages
 MD| CPU time per MD step [s]                     62.797641            62.797641
 MD| Energy drift per atom [K]          -0.126040752186E+01   0.000000000000E+00
 MD| Potential energy [hartree]         -0.808679413662E+03  -0.808679413662E+03
 MD| Kinetic energy [hartree]            0.774484082353E+00   0.774484082353E+00
 MD| Temperature [K]                            1646.885107          1646.885107
 MD| ***************************************************************************

 Number of electrons:                                                        560
 Number of occupied orbitals:                                                440
 Number of molecular orbitals:                                               480

 Number of orbital functions:                                               1300
 Number of independent orbital functions:                                   1300

 Extrapolation method: ASPC


 SCF WAVEFUNCTION OPTIMIZATION

  Step     Update method      Time    Convergence         Total energy    Change
  ------------------------------------------------------------------------------
     1 Broy./Diag. 0.20E+00    1.5     0.01433001      -808.8736128118 -8.09E+02
     2 Broy./Diag. 0.20E+00    2.4     0.00686210      -808.9277611067 -5.41E-02
     3 Broy./Diag. 0.20E+00    2.4     0.00314036      -808.9074443952  2.03E-02
     4 Broy./Diag. 0.20E+00    2.0     0.00147787      -808.8899147229  1.75E-02
     5 Broy./Diag. 0.20E+00    2.1     0.00107905      -808.8784613961  1.15E-02
     6 Broy./Diag. 0.20E+00    2.1     0.00033760      -808.8740619988  4.40E-03
     7 Broy./Diag. 0.20E+00    2.2     0.00017400      -808.8736113283  4.51E-04
     8 Broy./Diag. 0.20E+00    2.1     0.00015235      -808.8740054598 -3.94E-04
     9 Broy./Diag. 0.20E+00    2.1     0.00009454      -808.8745209543 -5.15E-04
    10 Broy./Diag. 0.20E+00    2.1     0.00002999      -808.8746938891 -1.73E-04

  *** SCF run converged in    10 steps ***


  Electronic density on regular grids:       -559.9999999988        0.0000000012
  Core density on regular grids:              559.9999998896       -0.0000001104
  Total charge density on r-space grids:       -0.0000001092
  Total charge density g-space grids:          -0.0000001092

  Overlap energy of the core charge distribution:               0.01624436283767
  Self energy of the core charge distribution:              -1737.24439639931302
  Core Hamiltonian energy:                                    411.68582980851215
  Hartree energy:                                             708.71770101520690
  Exchange-correlation energy:                               -190.44260538610780
  Dispersion energy:                                           -0.71853833183291
  Electronic entropic energy:                                  -0.88892886873610
  Fermi energy:                                                 0.12640539048785

  Total energy:                                              -808.87469388906175

 ENERGY| Total FORCE_EVAL ( QS ) energy [hartree]           -808.874854617803294

 MD| ***************************************************************************
 MD| Step number                                                               2
 MD| Time [fs]                                                          1.000000
 MD| Conserved quantity [hartree]                            -0.807904216677E+03
 MD| ---------------------------------------------------------------------------
 MD|                                          Instantaneous             Averages
 MD| CPU time per MD step [s]                     24.431539            43.614590
 MD| Energy drift per atom [K]          -0.428408808496E+01  -0.214204404248E+01
 MD| Potential energy [hartree]         -0.808874854618E+03  -0.808777134140E+03
 MD| Kinetic energy [hartree]            0.966332931217E+00   0.870408506785E+00
 MD| Temperature [K]                            2054.837987          1850.861547
 MD| ***************************************************************************

 Number of electrons:                                                        560
 Number of occupied orbitals:                                                440
 Number of molecular orbitals:                                               480

 Number of orbital functions:                                               1300
 Number of independent orbital functions:                                   1300

 Extrapolation method: ASPC


 SCF WAVEFUNCTION OPTIMIZATION

  Step     Update method      Time    Convergence         Total energy    Change
  ------------------------------------------------------------------------------
     1 Broy./Diag. 0.20E+00    1.5     0.02453264      -809.1774518903 -8.09E+02
     2 Broy./Diag. 0.20E+00    1.9     0.00970227      -809.2586442778 -8.12E-02
     3 Broy./Diag. 0.20E+00    2.0     0.00452520      -809.2273006165  3.13E-02
     4 Broy./Diag. 0.20E+00    2.0     0.00267257      -809.2009251362  2.64E-02
     5 Broy./Diag. 0.20E+00    2.1     0.00102767      -809.1844148792  1.65E-02
     6 Broy./Diag. 0.20E+00    2.2     0.00048181      -809.1790807399  5.33E-03
     7 Broy./Diag. 0.20E+00    2.2     0.00028537      -809.1779045431  1.18E-03
     8 Broy./Diag. 0.20E+00    2.4     0.00011856      -809.1782110992 -3.07E-04
     9 Broy./Diag. 0.20E+00    2.1     0.00008111      -809.1787667877 -5.56E-04
    10 Broy./Diag. 0.20E+00    2.1     0.00004645      -809.1790136809 -2.47E-04

  *** SCF run converged in    10 steps ***


  Electronic density on regular grids:       -559.9999999988        0.0000000012
  Core density on regular grids:              559.9999998896       -0.0000001104
  Total charge density on r-space grids:       -0.0000001092
  Total charge density g-space grids:          -0.0000001092

  Overlap energy of the core charge distribution:               0.01376169290442
  Self energy of the core charge distribution:              -1737.24439639931302
  Core Hamiltonian energy:                                    411.34988158742294
  Hartree energy:                                             708.71000452375142
  Exchange-correlation energy:                               -190.40077725310405
  Dispersion energy:                                           -0.71857277615020
  Electronic entropic energy:                                  -0.88891531356444
  Fermi energy:                                                 0.12640241978568

  Total energy:                                              -809.17901368094340

 ENERGY| Total FORCE_EVAL ( QS ) energy [hartree]           -809.179227573921025

 MD| ***************************************************************************
 MD| Step number                                                               3
 MD| Time [fs]                                                          1.500000
 MD| Conserved quantity [hartree]                            -0.807905570418E+03
 MD| ---------------------------------------------------------------------------
 MD|                                          Instantaneous             Averages
 MD| CPU time per MD step [s]                     24.093612            37.107597
 MD| Energy drift per atom [K]          -0.855885911883E+01  -0.428098240126E+01
 MD| Potential energy [hartree]         -0.809179227574E+03  -0.808911165285E+03
 MD| Kinetic energy [hartree]            0.126844310091E+01   0.100308670483E+01
 MD| Temperature [K]                            2697.253694          2132.992263
 MD| ***************************************************************************

 Number of electrons:                                                        560
 Number of occupied orbitals:                                                440
 Number of molecular orbitals:                                               480

 Number of orbital functions:                                               1300
 Number of independent orbital functions:                                   1300

 Extrapolation method: ASPC


 SCF WAVEFUNCTION OPTIMIZATION

  Step     Update method      Time    Convergence         Total energy    Change
  ------------------------------------------------------------------------------
     1 Broy./Diag. 0.20E+00    1.5     0.03345783      -809.5686082545 -8.10E+02
     2 Broy./Diag. 0.20E+00    2.2     0.01250058      -809.6785417885 -1.10E-01
     3 Broy./Diag. 0.20E+00    2.3     0.00616763      -809.6353262331  4.32E-02
     4 Broy./Diag. 0.20E+00    3.5     0.00360073      -809.6001160646  3.52E-02
     5 Broy./Diag. 0.20E+00    3.3     0.00091791      -809.5781433385  2.20E-02
     6 Broy./Diag. 0.20E+00    3.6     0.00053034      -809.5714884921  6.65E-03
     7 Broy./Diag. 0.20E+00    3.4     0.00033985      -809.5696755330  1.81E-03
     8 Broy./Diag. 0.20E+00    3.6     0.00014029      -809.5700659963 -3.90E-04
     9 Broy./Diag. 0.20E+00    3.3     0.00006123      -809.5706477401 -5.82E-04
    10 Broy./Diag. 0.20E+00    3.6     0.00006218      -809.5709998628 -3.52E-04
    11 Broy./Diag. 0.20E+00    3.1     0.00002943      -809.5712086551 -2.09E-04

  *** SCF run converged in    11 steps ***


  Electronic density on regular grids:       -559.9999999988        0.0000000012
  Core density on regular grids:              559.9999998896       -0.0000001104
  Total charge density on r-space grids:       -0.0000001092
  Total charge density g-space grids:          -0.0000001092

  Overlap energy of the core charge distribution:               0.01101095257885
  Self energy of the core charge distribution:              -1737.24439639931302
  Core Hamiltonian energy:                                    410.89503126999597
  Hartree energy:                                             708.71650847027968
  Exchange-correlation energy:                               -190.34181430801033
  Dispersion energy:                                           -0.71860162514436
  Electronic entropic energy:                                  -0.88894669671512
  Fermi energy:                                                 0.12639747505316

  Total energy:                                              -809.57120865507898

 ENERGY| Total FORCE_EVAL ( QS ) energy [hartree]           -809.571244139282840

 MD| ***************************************************************************
 MD| Step number                                                               4
 MD| Time [fs]                                                          2.000000
 MD| Conserved quantity [hartree]                            -0.807907114285E+03
 MD| ---------------------------------------------------------------------------
 MD|                                          Instantaneous             Averages
 MD| CPU time per MD step [s]                     38.092227            37.353755
 MD| Energy drift per atom [K]          -0.134339981126E+02  -0.656923632909E+01
 MD| Potential energy [hartree]         -0.809571244139E+03  -0.809076184998E+03
 MD| Kinetic energy [hartree]            0.165808463537E+01   0.116683618746E+01
 MD| Temperature [K]                            3525.798599          2481.193847
 MD| ***************************************************************************

 Number of electrons:                                                        560
 Number of occupied orbitals:                                                440
 Number of molecular orbitals:                                               480

 Number of orbital functions:                                               1300
 Number of independent orbital functions:                                   1300

 Extrapolation method: ASPC


 SCF WAVEFUNCTION OPTIMIZATION

  Step     Update method      Time    Convergence         Total energy    Change
  ------------------------------------------------------------------------------
     1 Broy./Diag. 0.20E+00    2.6     0.04148790      -810.0218464513 -8.10E+02
     2 Broy./Diag. 0.20E+00    3.4     0.01501446      -810.1567776867 -1.35E-01
     3 Broy./Diag. 0.20E+00    5.2     0.00770305      -810.1030182439  5.38E-02
     4 Broy./Diag. 0.20E+00    8.2     0.00440413      -810.0610769346  4.19E-02
     5 Broy./Diag. 0.20E+00    8.0     0.00113918      -810.0341159780  2.70E-02
     6 Broy./Diag. 0.20E+00    7.7     0.00072642      -810.0262761637  7.84E-03
     7 Broy./Diag. 0.20E+00    3.4     0.00038634      -810.0236476885  2.63E-03
     8 Broy./Diag. 0.20E+00    3.2     0.00020731      -810.0242486309 -6.01E-04
     9 Broy./Diag. 0.20E+00    8.3     0.00011820      -810.0247742491 -5.26E-04
    10 Broy./Diag. 0.20E+00    9.6     0.00007779      -810.0252965862 -5.22E-04
    11 Broy./Diag. 0.20E+00    6.9     0.00003271      -810.0254884495 -1.92E-04

  *** SCF run converged in    11 steps ***


  Electronic density on regular grids:       -559.9999999988        0.0000000012
  Core density on regular grids:              559.9999998897       -0.0000001103
  Total charge density on r-space grids:       -0.0000001092
  Total charge density g-space grids:          -0.0000001092

  Overlap energy of the core charge distribution:               0.00836440856868
  Self energy of the core charge distribution:              -1737.24439639931302
  Core Hamiltonian energy:                                    410.33961260620038
  Hartree energy:                                             708.74560418128215
  Exchange-correlation energy:                               -190.26701752869425
  Dispersion energy:                                           -0.71862527790972
  Electronic entropic energy:                                  -0.88903049614055
  Fermi energy:                                                 0.12639088071130

  Total energy:                                              -810.02548844951821

 ENERGY| Total FORCE_EVAL ( QS ) energy [hartree]           -810.025546650634624

 MD| ***************************************************************************
 MD| Step number                                                               5
 MD| Time [fs]                                                          2.500000
 MD| Conserved quantity [hartree]                            -0.807908641839E+03
 MD| ---------------------------------------------------------------------------
 MD|                                          Instantaneous             Averages
 MD| CPU time per MD step [s]                     73.083755            44.499755
 MD| Energy drift per atom [K]          -0.182576268312E+02  -0.890691442952E+01
 MD| Potential energy [hartree]         -0.810025546651E+03  -0.809266057329E+03
 MD| Kinetic energy [hartree]            0.210458949990E+01   0.135438684995E+01
 MD| Temperature [K]                            4475.259315          2880.006941
 MD| ***************************************************************************

 Number of electrons:                                                        560
 Number of occupied orbitals:                                                440
 Number of molecular orbitals:                                               480

 Number of orbital functions:                                               1300
 Number of independent orbital functions:                                   1300

 Extrapolation method: ASPC


 SCF WAVEFUNCTION OPTIMIZATION

  Step     Update method      Time    Convergence         Total energy    Change
  ------------------------------------------------------------------------------
     1 Broy./Diag. 0.20E+00    2.5     0.04819534      -810.5116082992 -8.11E+02
     2 Broy./Diag. 0.20E+00    3.2     0.01681066      -810.6652998224 -1.54E-01
     3 Broy./Diag. 0.20E+00    3.4     0.00911101      -810.6043121394  6.10E-02
     4 Broy./Diag. 0.20E+00    3.0     0.00508225      -810.5566248770  4.77E-02
     5 Broy./Diag. 0.20E+00    3.2     0.00132575      -810.5261968105  3.04E-02
     6 Broy./Diag. 0.20E+00    3.2     0.00089639      -810.5173601446  8.84E-03
     7 Broy./Diag. 0.20E+00    3.3     0.00052861      -810.5143373535  3.02E-03
     8 Broy./Diag. 0.20E+00    3.4     0.00031872      -810.5150853216 -7.48E-04
     9 Broy./Diag. 0.20E+00    3.3     0.00016407      -810.5156324834 -5.47E-04
    10 Broy./Diag. 0.20E+00    3.8     0.00008884      -810.5162526075 -6.20E-04
    11 Broy./Diag. 0.20E+00    3.7     0.00003750      -810.5164820918 -2.29E-04

  *** SCF run converged in    11 steps ***


  Electronic density on regular grids:       -559.9999999988        0.0000000012
  Core density on regular grids:              559.9999998897       -0.0000001103
  Total charge density on r-space grids:       -0.0000001091
  Total charge density g-space grids:          -0.0000001091

  Overlap energy of the core charge distribution:               0.00606884154866
  Self energy of the core charge distribution:              -1737.24439639931302
  Core Hamiltonian energy:                                    409.70402840508774
  Hartree energy:                                             708.80364252637310
  Exchange-correlation energy:                               -190.17800816707478
  Dispersion energy:                                           -0.71864411920850
  Electronic entropic energy:                                  -0.88917323492588
  Fermi energy:                                                 0.12638315849246

  Total energy:                                              -810.51648209179064

 ENERGY| Total FORCE_EVAL ( QS ) energy [hartree]           -810.516526134366245

 MD| ***************************************************************************
 MD| Step number                                                               6
 MD| Time [fs]                                                          3.000000
 MD| Conserved quantity [hartree]                            -0.807909990249E+03
 MD| ---------------------------------------------------------------------------
 MD|                                          Instantaneous             Averages
 MD| CPU time per MD step [s]                     41.514000            44.002129
 MD| Energy drift per atom [K]          -0.225155650289E+02  -0.111750228628E+02
 MD| Potential energy [hartree]         -0.810516526134E+03  -0.809474468796E+03
 MD| Kinetic energy [hartree]            0.258828199054E+01   0.156003604005E+01
 MD| Temperature [K]                            5503.796864          3317.305261
 MD| ***************************************************************************

 Number of electrons:                                                        560
 Number of occupied orbitals:                                                440
 Number of molecular orbitals:                                               480

 Number of orbital functions:                                               1300
 Number of independent orbital functions:                                   1300

 Extrapolation method: ASPC


 SCF WAVEFUNCTION OPTIMIZATION

  Step     Update method      Time    Convergence         Total energy    Change
  ------------------------------------------------------------------------------
     1 Broy./Diag. 0.20E+00    2.5     0.05372839      -811.0151048062 -8.11E+02
     2 Broy./Diag. 0.20E+00    3.2     0.01803207      -811.1813717507 -1.66E-01
     3 Broy./Diag. 0.20E+00    3.7     0.01047372      -811.1157889465  6.56E-02
     4 Broy./Diag. 0.20E+00    3.4     0.00560913      -811.0645794482  5.12E-02
     5 Broy./Diag. 0.20E+00    3.4     0.00144895      -811.0317159931  3.29E-02
     6 Broy./Diag. 0.20E+00    3.4     0.00105030      -811.0222388101  9.48E-03
     7 Broy./Diag. 0.20E+00    3.1     0.00076807      -811.0188367104  3.40E-03
     8 Broy./Diag. 0.20E+00    3.3     0.00043211      -811.0197419970 -9.05E-04
     9 Broy./Diag. 0.20E+00    3.6     0.00017820      -811.0203461549 -6.04E-04
    10 Broy./Diag. 0.20E+00    3.3     0.00010010      -811.0210539622 -7.08E-04
    11 Broy./Diag. 0.20E+00    3.2     0.00004358      -811.0213408134 -2.87E-04

  *** SCF run converged in    11 steps ***


  Electronic density on regular grids:       -559.9999999988        0.0000000012
  Core density on regular grids:              559.9999998896       -0.0000001104
  Total charge density on r-space grids:       -0.0000001092
  Total charge density g-space grids:          -0.0000001092

  Overlap energy of the core charge distribution:               0.00423191413297
  Self energy of the core charge distribution:              -1737.24439639931302
  Core Hamiltonian energy:                                    409.00906124403383
  Hartree energy:                                             708.89435725159535
  Exchange-correlation energy:                               -190.07655386560478
  Dispersion energy:                                           -0.71865841441251
  Electronic entropic energy:                                  -0.88938235867786
  Fermi energy:                                                 0.12637457951699

  Total energy:                                              -811.02134081343229

 ENERGY| Total FORCE_EVAL ( QS ) energy [hartree]           -811.021348866317339

 MD| ***************************************************************************
 MD| Step number                                                               7
 MD| Time [fs]                                                          3.500000
 MD| Conserved quantity [hartree]                            -0.807911059056E+03
 MD| ---------------------------------------------------------------------------
 MD|                                          Instantaneous             Averages
 MD| CPU time per MD step [s]                     41.008216            43.574427
 MD| Energy drift per atom [K]          -0.258905858765E+02  -0.132772461504E+02
 MD| Potential energy [hartree]         -0.811021348866E+03  -0.809695451663E+03
 MD| Kinetic energy [hartree]            0.309786110023E+01   0.177972533436E+01
 MD| Temperature [K]                            6587.380459          3784.458861
 MD| ***************************************************************************

 Number of electrons:                                                        560
 Number of occupied orbitals:                                                440
 Number of molecular orbitals:                                               480

 Number of orbital functions:                                               1300
 Number of independent orbital functions:                                   1300

 Extrapolation method: ASPC


 SCF WAVEFUNCTION OPTIMIZATION

  Step     Update method      Time    Convergence         Total energy    Change
  ------------------------------------------------------------------------------
     1 Broy./Diag. 0.20E+00    2.5     0.05774973      -811.5142183330 -8.12E+02
     2 Broy./Diag. 0.20E+00    3.4     0.01866482      -811.6866312938 -1.72E-01
     3 Broy./Diag. 0.20E+00    3.1     0.01170824      -811.6194930140  6.71E-02
     4 Broy./Diag. 0.20E+00    2.8     0.00595907      -811.5667424939  5.28E-02
     5 Broy./Diag. 0.20E+00    3.2     0.00184341      -811.5325539541  3.42E-02
     6 Broy./Diag. 0.20E+00    3.3     0.00131597      -811.5226677280  9.89E-03
     7 Broy./Diag. 0.20E+00    3.3     0.00093638      -811.5190329264  3.63E-03
     8 Broy./Diag. 0.20E+00    3.5     0.00047667      -811.5200751106 -1.04E-03
     9 Broy./Diag. 0.20E+00    3.6     0.00016030      -811.5207955616 -7.20E-04
    10 Broy./Diag. 0.20E+00    3.3     0.00011017      -811.5215690955 -7.74E-04
    11 Broy./Diag. 0.20E+00    3.3     0.00004664      -811.5218908038 -3.22E-04

  *** SCF run converged in    11 steps ***


  Electronic density on regular grids:       -559.9999999988        0.0000000012
  Core density on regular grids:              559.9999998897       -0.0000001103
  Total charge density on r-space grids:       -0.0000001092
  Total charge density g-space grids:          -0.0000001092

  Overlap energy of the core charge distribution:               0.00285298156906
  Self energy of the core charge distribution:              -1737.24439639931302
  Core Hamiltonian energy:                                    408.27361432648098
  Hartree energy:                                             709.01873821322204
  Exchange-correlation energy:                               -189.96436423869670
  Dispersion energy:                                           -0.71866818680924
  Electronic entropic energy:                                  -0.88966690479090
  Fermi energy:                                                 0.12636516614100

  Total energy:                                              -811.52189080379958

 ENERGY| Total FORCE_EVAL ( QS ) energy [hartree]           -811.521874423923123

 MD| ***************************************************************************
 MD| Step number                                                               8
 MD| Time [fs]                                                          4.000000
 MD| Conserved quantity [hartree]                            -0.807911809368E+03
 MD| ---------------------------------------------------------------------------
 MD|                                          Instantaneous             Averages
 MD| CPU time per MD step [s]                     40.777490            43.224810
 MD| Energy drift per atom [K]          -0.282598803464E+02  -0.151500754249E+02
 MD| Potential energy [hartree]         -0.811521874424E+03  -0.809923754509E+03
 MD| Kinetic energy [hartree]            0.361700197378E+01   0.200938491429E+01
 MD| Temperature [K]                            7691.296463          4272.813561
 MD| ***************************************************************************

 Number of electrons:                                                        560
 Number of occupied orbitals:                                                440
 Number of molecular orbitals:                                               480

 Number of orbital functions:                                               1300
 Number of independent orbital functions:                                   1300

 Extrapolation method: ASPC


 SCF WAVEFUNCTION OPTIMIZATION

  Step     Update method      Time    Convergence         Total energy    Change
  ------------------------------------------------------------------------------
     1 Broy./Diag. 0.20E+00    2.6     0.06031883      -811.9943041542 -8.12E+02
     2 Broy./Diag. 0.20E+00    3.3     0.01903717      -812.1660753937 -1.72E-01
     3 Broy./Diag. 0.20E+00    3.6     0.01281515      -812.1006760700  6.54E-02
     4 Broy./Diag. 0.20E+00    3.4     0.00614376      -812.0483988015  5.23E-02
     5 Broy./Diag. 0.20E+00    3.3     0.00212651      -812.0140762735  3.43E-02
     6 Broy./Diag. 0.20E+00    3.5     0.00149641      -812.0039365762  1.01E-02
     7 Broy./Diag. 0.20E+00    3.3     0.00101867      -812.0002259344  3.71E-03
     8 Broy./Diag. 0.20E+00    3.6     0.00048397      -812.0013914231 -1.17E-03
     9 Broy./Diag. 0.20E+00    3.8     0.00014603      -812.0022474546 -8.56E-04
    10 Broy./Diag. 0.20E+00    3.5     0.00011773      -812.0030831119 -8.36E-04
    11 Broy./Diag. 0.20E+00    4.0     0.00004722      -812.0034148469 -3.32E-04

  *** SCF run converged in    11 steps ***


  Electronic density on regular grids:       -559.9999999988        0.0000000012
  Core density on regular grids:              559.9999998896       -0.0000001104
  Total charge density on r-space grids:       -0.0000001092
  Total charge density g-space grids:          -0.0000001092

  Overlap energy of the core charge distribution:               0.00187260447676
  Self energy of the core charge distribution:              -1737.24439639931302
  Core Hamiltonian energy:                                    407.51617406558205
  Hartree energy:                                             709.17506495532768
  Exchange-correlation energy:                               -189.84341897576846
  Dispersion energy:                                           -0.71867305029516
  Electronic entropic energy:                                  -0.89003698252697
  Fermi energy:                                                 0.12635471539696

  Total energy:                                              -812.00341484692706

 ENERGY| Total FORCE_EVAL ( QS ) energy [hartree]           -812.003389904782921

 MD| ***************************************************************************
 MD| Step number                                                               9
 MD| Time [fs]                                                          4.500000
 MD| Conserved quantity [hartree]                            -0.807912251292E+03
 MD| ---------------------------------------------------------------------------
 MD|                                          Instantaneous             Averages
 MD| CPU time per MD step [s]                     43.521624            43.257789
 MD| Energy drift per atom [K]          -0.296553637709E+02  -0.167617741300E+02
 MD| Potential energy [hartree]         -0.812003389905E+03  -0.810154825108E+03
 MD| Kinetic energy [hartree]            0.409072949729E+01   0.224064542351E+01
 MD| Temperature [K]                            8698.644220          4764.572523
 MD| ***************************************************************************

 Number of electrons:                                                        560
 Number of occupied orbitals:                                                440
 Number of molecular orbitals:                                               480

 Number of orbital functions:                                               1300
 Number of independent orbital functions:                                   1300

 Extrapolation method: ASPC


 SCF WAVEFUNCTION OPTIMIZATION

  Step     Update method      Time    Convergence         Total energy    Change
  ------------------------------------------------------------------------------
     1 Broy./Diag. 0.20E+00    2.7     0.06121885      -812.4442197456 -8.12E+02
     2 Broy./Diag. 0.20E+00    3.3     0.02074656      -812.6089395948 -1.65E-01
     3 Broy./Diag. 0.20E+00    3.6     0.01367489      -812.5483182824  6.06E-02
     4 Broy./Diag. 0.20E+00    3.2     0.00615630      -812.4984046692  4.99E-02
     5 Broy./Diag. 0.20E+00    3.5     0.00227028      -812.4650623510  3.33E-02
     6 Broy./Diag. 0.20E+00    3.5     0.00155670      -812.4548056254  1.03E-02
     7 Broy./Diag. 0.20E+00    3.1     0.00102945      -812.4511830494  3.62E-03
     8 Broy./Diag. 0.20E+00    3.1     0.00048472      -812.4524711025 -1.29E-03
     9 Broy./Diag. 0.20E+00    3.7     0.00015195      -812.4534508000 -9.80E-04
    10 Broy./Diag. 0.20E+00    4.0     0.00012102      -812.4543510142 -9.00E-04
    11 Broy./Diag. 0.20E+00    7.9     0.00004706      -812.4546737039 -3.23E-04

  *** SCF run converged in    11 steps ***


  Electronic density on regular grids:       -559.9999999988        0.0000000012
  Core density on regular grids:              559.9999998896       -0.0000001104
  Total charge density on r-space grids:       -0.0000001092
  Total charge density g-space grids:          -0.0000001092

  Overlap energy of the core charge distribution:               0.00120708497164
  Self energy of the core charge distribution:              -1737.24439639931302
  Core Hamiltonian energy:                                    406.75454537298009
  Hartree energy:                                             709.35915740003941
  Exchange-correlation energy:                               -189.71600973712012
  Dispersion energy:                                           -0.71867217310631
  Electronic entropic energy:                                  -0.89050386650531
  Fermi energy:                                                 0.12634277034903

  Total energy:                                              -812.45467370388167

 ENERGY| Total FORCE_EVAL ( QS ) energy [hartree]           -812.454652751387243

 MD| ***************************************************************************
 MD| Step number                                                              10
 MD| Time [fs]                                                          5.000000
 MD| Conserved quantity [hartree]                            -0.807912431405E+03
 MD| ---------------------------------------------------------------------------
 MD|                                          Instantaneous             Averages
 MD| CPU time per MD step [s]                     48.154591            43.747470
 MD| Energy drift per atom [K]          -0.302241140163E+02  -0.181080081187E+02
 MD| Potential energy [hartree]         -0.812454652751E+03  -0.810384807872E+03
 MD| Kinetic energy [hartree]            0.453771327792E+01   0.247035220895E+01
 MD| Temperature [K]                            9649.123317          5253.027603
 MD| ***************************************************************************

 Number of electrons:                                                        560
 Number of occupied orbitals:                                                440
 Number of molecular orbitals:                                               480

 Number of orbital functions:                                               1300
 Number of independent orbital functions:                                   1300

 Extrapolation method: ASPC


 SCF WAVEFUNCTION OPTIMIZATION

  Step     Update method      Time    Convergence         Total energy    Change
  ------------------------------------------------------------------------------
     1 Broy./Diag. 0.20E+00    7.3     0.06081772      -812.8587097250 -8.13E+02
     2 Broy./Diag. 0.20E+00    8.2     0.02218085      -813.0120211319 -1.53E-01
     3 Broy./Diag. 0.20E+00    9.0     0.01428461      -812.9583091357  5.37E-02
     4 Broy./Diag. 0.20E+00    9.1     0.00604741      -812.9119611054  4.63E-02
     5 Broy./Diag. 0.20E+00    8.5     0.00226459      -812.8803629030  3.16E-02
     6 Broy./Diag. 0.20E+00    9.1     0.00150969      -812.8700651648  1.03E-02
     7 Broy./Diag. 0.20E+00    7.7     0.00100265      -812.8666707883  3.39E-03
     8 Broy./Diag. 0.20E+00    8.2     0.00050138      -812.8681056406 -1.43E-03
     9 Broy./Diag. 0.20E+00    3.5     0.00018218      -812.8691792104 -1.07E-03
    10 Broy./Diag. 0.20E+00    3.5     0.00012012      -812.8701481043 -9.69E-04
    11 Broy./Diag. 0.20E+00    3.8     0.00006378      -812.8704528258 -3.05E-04
    12 Broy./Diag. 0.20E+00    3.5     0.00004370      -812.8705343483 -8.15E-05

  *** SCF run converged in    12 steps ***


  Electronic density on regular grids:       -559.9999999988        0.0000000012
  Core density on regular grids:              559.9999998896       -0.0000001104
  Total charge density on r-space grids:       -0.0000001092
  Total charge density g-space grids:          -0.0000001092

  Overlap energy of the core charge distribution:               0.00076994283374
  Self energy of the core charge distribution:              -1737.24439639931302
  Core Hamiltonian energy:                                    406.00043990211555
  Hartree energy:                                             709.56622936955512
  Exchange-correlation energy:                               -189.58383027645655
  Dispersion energy:                                           -0.71866429831953
  Electronic entropic energy:                                  -0.89108322720522
  Fermi energy:                                                 0.12632852468633

  Total energy:                                              -812.87053434831614

 ENERGY| Total FORCE_EVAL ( QS ) energy [hartree]           -812.870443846432295

 MD| ***************************************************************************
 MD| Step number                                                              11
 MD| Time [fs]                                                          5.500000
 MD| Conserved quantity [hartree]                            -0.807912405646E+03
 MD| ---------------------------------------------------------------------------
 MD|                                          Instantaneous             Averages
 MD| CPU time per MD step [s]                     88.373270            47.804360
 MD| Energy drift per atom [K]          -0.301427760617E+02  -0.192020779317E+02
 MD| Potential energy [hartree]         -0.812870443846E+03  -0.810610774779E+03
 MD| Kinetic energy [hartree]            0.494015410086E+01   0.269487965367E+01
 MD| Temperature [K]                           10504.884995          5730.469184
 MD| ***************************************************************************

 Number of electrons:                                                        560
 Number of occupied orbitals:                                                440
 Number of molecular orbitals:                                               480

 Number of orbital functions:                                               1300
 Number of independent orbital functions:                                   1300

 Extrapolation method: ASPC


 SCF WAVEFUNCTION OPTIMIZATION

  Step     Update method      Time    Convergence         Total energy    Change
  ------------------------------------------------------------------------------
     1 Broy./Diag. 0.20E+00    2.3     0.05978614      -813.2346415913 -8.13E+02
     2 Broy./Diag. 0.20E+00    3.4     0.02353206      -813.3713692222 -1.37E-01
     3 Broy./Diag. 0.20E+00    3.4     0.01478621      -813.3272207341  4.41E-02
     4 Broy./Diag. 0.20E+00    3.1     0.00589006      -813.2853510943  4.19E-02
     5 Broy./Diag. 0.20E+00    3.1     0.00226597      -813.2565007994  2.89E-02
     6 Broy./Diag. 0.20E+00    3.3     0.00135190      -813.2462928076  1.02E-02
     7 Broy./Diag. 0.20E+00    3.7     0.00092366      -813.2435103219  2.78E-03
     8 Broy./Diag. 0.20E+00    3.4     0.00052738      -813.2451191825 -1.61E-03
     9 Broy./Diag. 0.20E+00    3.5     0.00023333      -813.2462452370 -1.13E-03
    10 Broy./Diag. 0.20E+00    3.3     0.00011373      -813.2472590881 -1.01E-03
    11 Broy./Diag. 0.20E+00    3.4     0.00006773      -813.2475310244 -2.72E-04
    12 Broy./Diag. 0.20E+00    3.2     0.00004628      -813.2476360745 -1.05E-04

  *** SCF run converged in    12 steps ***


  Electronic density on regular grids:       -559.9999999988        0.0000000012
  Core density on regular grids:              559.9999998896       -0.0000001104
  Total charge density on r-space grids:       -0.0000001092
  Total charge density g-space grids:          -0.0000001092

  Overlap energy of the core charge distribution:               0.00049063705195
  Self energy of the core charge distribution:              -1737.24439639931302
  Core Hamiltonian energy:                                    405.26496882450868
  Hartree energy:                                             709.79057021369294
  Exchange-correlation energy:                               -189.44883313677366
  Dispersion energy:                                           -0.71864783880250
  Electronic entropic energy:                                  -0.89178887080149
  Fermi energy:                                                 0.12631063363195

  Total energy:                                              -813.24763607452326

 ENERGY| Total FORCE_EVAL ( QS ) energy [hartree]           -813.247543158261124

 MD| ***************************************************************************
 MD| Step number                                                              12
 MD| Time [fs]                                                          6.000000
 MD| Conserved quantity [hartree]                            -0.807912236046E+03
 MD| ---------------------------------------------------------------------------
 MD|                                          Instantaneous             Averages
 MD| CPU time per MD step [s]                     44.500580            47.529045
 MD| Energy drift per atom [K]          -0.296072211677E+02  -0.200691732013E+02
 MD| Potential energy [hartree]         -0.813247543158E+03  -0.810830505477E+03
 MD| Kinetic energy [hartree]            0.532193846465E+01   0.291380122125E+01
 MD| Temperature [K]                           11316.722187          6195.990267
 MD| ***************************************************************************

 Number of electrons:                                                        560
 Number of occupied orbitals:                                                440
 Number of molecular orbitals:                                               480

 Number of orbital functions:                                               1300
 Number of independent orbital functions:                                   1300

 Extrapolation method: ASPC


 SCF WAVEFUNCTION OPTIMIZATION

  Step     Update method      Time    Convergence         Total energy    Change
  ------------------------------------------------------------------------------
     1 Broy./Diag. 0.20E+00    2.9     0.06359527      -813.5722501353 -8.14E+02
     2 Broy./Diag. 0.20E+00    3.3     0.02451368      -813.6907516583 -1.19E-01
     3 Broy./Diag. 0.20E+00    3.4     0.01494143      -813.6565651490  3.42E-02
     4 Broy./Diag. 0.20E+00    3.1     0.00564745      -813.6204683297  3.61E-02
     5 Broy./Diag. 0.20E+00    2.7     0.00270343      -813.5943920752  2.61E-02
     6 Broy./Diag. 0.20E+00    3.2     0.00134383      -813.5844363839  9.96E-03
     7 Broy./Diag. 0.20E+00    3.3     0.00091111      -813.5819216528  2.51E-03
     8 Broy./Diag. 0.20E+00    3.3     0.00055574      -813.5836934766 -1.77E-03
     9 Broy./Diag. 0.20E+00    3.3     0.00026638      -813.5848698738 -1.18E-03
    10 Broy./Diag. 0.20E+00    3.3     0.00010944      -813.5859318705 -1.06E-03
    11 Broy./Diag. 0.20E+00    3.2     0.00007370      -813.5861893059 -2.57E-04
    12 Broy./Diag. 0.20E+00    3.3     0.00004742      -813.5863054326 -1.16E-04

  *** SCF run converged in    12 steps ***


  Electronic density on regular grids:       -559.9999999988        0.0000000012
  Core density on regular grids:              559.9999998896       -0.0000001104
  Total charge density on r-space grids:       -0.0000001092
  Total charge density g-space grids:          -0.0000001092

  Overlap energy of the core charge distribution:               0.00031516778015
  Self energy of the core charge distribution:              -1737.24439639931302
  Core Hamiltonian energy:                                    404.55462175124853
  Hartree energy:                                             710.02686717841038
  Exchange-correlation energy:                               -189.31245516076152
  Dispersion energy:                                           -0.71862100422004
  Electronic entropic energy:                                  -0.89263735730922
  Fermi energy:                                                 0.12628752253754

  Total energy:                                              -813.58630543256015

 ENERGY| Total FORCE_EVAL ( QS ) energy [hartree]           -813.586208192579306

 MD| ***************************************************************************
 MD| Step number                                                              13
 MD| Time [fs]                                                          6.500000
 MD| Conserved quantity [hartree]                            -0.807911973844E+03
 MD| ---------------------------------------------------------------------------
 MD|                                          Instantaneous             Averages
 MD| CPU time per MD step [s]                     43.469656            47.216785
 MD| Energy drift per atom [K]          -0.287792531749E+02  -0.207391793532E+02
 MD| Potential energy [hartree]         -0.813586208193E+03  -0.811042482609E+03
 MD| Kinetic energy [hartree]            0.564928139026E+01   0.312422277271E+01
 MD| Temperature [K]                           12012.793548          6643.436674
 MD| ***************************************************************************

 Number of electrons:                                                        560
 Number of occupied orbitals:                                                440
 Number of molecular orbitals:                                               480

 Number of orbital functions:                                               1300
 Number of independent orbital functions:                                   1300

 Extrapolation method: ASPC


 SCF WAVEFUNCTION OPTIMIZATION

  Step     Update method      Time    Convergence         Total energy    Change
  ------------------------------------------------------------------------------
     1 Broy./Diag. 0.20E+00    2.8     0.06729490      -813.8728423197 -8.14E+02
     2 Broy./Diag. 0.20E+00    3.0     0.02546547      -813.9702759788 -9.74E-02
     3 Broy./Diag. 0.20E+00    2.9     0.01498135      -813.9474965664  2.28E-02
     4 Broy./Diag. 0.20E+00    2.8     0.00557794      -813.9176607537  2.98E-02
     5 Broy./Diag. 0.20E+00    3.8     0.00303900      -813.8950063927  2.27E-02
     6 Broy./Diag. 0.20E+00    3.2     0.00133903      -813.8853522182  9.65E-03
     7 Broy./Diag. 0.20E+00    3.2     0.00087998      -813.8832106144  2.14E-03
     8 Broy./Diag. 0.20E+00    2.9     0.00058802      -813.8851466177 -1.94E-03
     9 Broy./Diag. 0.20E+00    3.1     0.00030635      -813.8863475110 -1.20E-03
    10 Broy./Diag. 0.20E+00    3.1     0.00010265      -813.8874472864 -1.10E-03
    11 Broy./Diag. 0.20E+00    3.0     0.00007619      -813.8876830104 -2.36E-04
    12 Broy./Diag. 0.20E+00    3.0     0.00004843      -813.8878045836 -1.22E-04

  *** SCF run converged in    12 steps ***


  Electronic density on regular grids:       -559.9999999988        0.0000000012
  Core density on regular grids:              559.9999998895       -0.0000001105
  Total charge density on r-space grids:       -0.0000001093
  Total charge density g-space grids:          -0.0000001093

  Overlap energy of the core charge distribution:               0.00020609379810
  Self energy of the core charge distribution:              -1737.24439639931302
  Core Hamiltonian energy:                                    403.87497130982234
  Hartree energy:                                             710.26981547640094
  Exchange-correlation energy:                               -189.17618409762952
  Dispersion energy:                                           -0.71858210810463
  Electronic entropic energy:                                  -0.89363514350533
  Fermi energy:                                                 0.12625740202767

  Total energy:                                              -813.88780458357860

 ENERGY| Total FORCE_EVAL ( QS ) energy [hartree]           -813.887710798609419

 MD| ***************************************************************************
 MD| Step number                                                              14
 MD| Time [fs]                                                          7.000000
 MD| Conserved quantity [hartree]                            -0.807911662584E+03
 MD| ---------------------------------------------------------------------------
 MD|                                          Instantaneous             Averages
 MD| CPU time per MD step [s]                     41.966950            46.841797
 MD| Energy drift per atom [K]          -0.277963731233E+02  -0.212432646224E+02
 MD| Potential energy [hartree]         -0.813887710799E+03  -0.811245713194E+03
 MD| Kinetic energy [hartree]            0.594938044965E+01   0.332601974964E+01
 MD| Temperature [K]                           12650.932773          7072.543538
 MD| ***************************************************************************

 Number of electrons:                                                        560
 Number of occupied orbitals:                                                440
 Number of molecular orbitals:                                               480

 Number of orbital functions:                                               1300
 Number of independent orbital functions:                                   1300

 Extrapolation method: ASPC


 SCF WAVEFUNCTION OPTIMIZATION

  Step     Update method      Time    Convergence         Total energy    Change
  ------------------------------------------------------------------------------
     1 Broy./Diag. 0.20E+00    2.4     0.07019416      -814.1388317358 -8.14E+02
     2 Broy./Diag. 0.20E+00    3.0     0.02626389      -814.2144621203 -7.56E-02
     3 Broy./Diag. 0.20E+00    3.1     0.01485188      -814.2034114736  1.11E-02
     4 Broy./Diag. 0.20E+00    3.1     0.00545549      -814.1798028065  2.36E-02
     5 Broy./Diag. 0.20E+00    3.5     0.00327137      -814.1607722294  1.90E-02
     6 Broy./Diag. 0.20E+00    3.7     0.00133022      -814.1515414494  9.23E-03
     7 Broy./Diag. 0.20E+00    3.3     0.00086623      -814.1497692323  1.77E-03
     8 Broy./Diag. 0.20E+00    3.3     0.00062327      -814.1518751523 -2.11E-03
     9 Broy./Diag. 0.20E+00    3.7     0.00034172      -814.1530786156 -1.20E-03
    10 Broy./Diag. 0.20E+00    3.2     0.00011460      -814.1542013474 -1.12E-03
    11 Broy./Diag. 0.20E+00    3.0     0.00007782      -814.1544115338 -2.10E-04
    12 Broy./Diag. 0.20E+00    3.2     0.00004950      -814.1545300560 -1.19E-04

  *** SCF run converged in    12 steps ***


  Electronic density on regular grids:       -559.9999999988        0.0000000012
  Core density on regular grids:              559.9999998895       -0.0000001105
  Total charge density on r-space grids:       -0.0000001093
  Total charge density g-space grids:          -0.0000001093

  Overlap energy of the core charge distribution:               0.00013843828797
  Self energy of the core charge distribution:              -1737.24439639931302
  Core Hamiltonian energy:                                    403.22966203221029
  Hartree energy:                                             710.51469350676780
  Exchange-correlation energy:                               -189.04132751905405
  Dispersion energy:                                           -0.71852982971411
  Electronic entropic energy:                                  -0.89477047873940
  Fermi energy:                                                 0.12621869760878

  Total energy:                                              -814.15453005604479

 ENERGY| Total FORCE_EVAL ( QS ) energy [hartree]           -814.154442221995168

 MD| ***************************************************************************
 MD| Step number                                                              15
 MD| Time [fs]                                                          7.500000
 MD| Conserved quantity [hartree]                            -0.807911336053E+03
 MD| ---------------------------------------------------------------------------
 MD|                                          Instantaneous             Averages
 MD| CPU time per MD step [s]                     43.835370            46.641368
 MD| Energy drift per atom [K]          -0.267652707833E+02  -0.216113983665E+02
 MD| Potential energy [hartree]         -0.814154442222E+03  -0.811439628463E+03
 MD| Kinetic energy [hartree]            0.619955631324E+01   0.351758885388E+01
 MD| Temperature [K]                           13182.913885          7479.901561
 MD| ***************************************************************************

 Number of electrons:                                                        560
 Number of occupied orbitals:                                                440
 Number of molecular orbitals:                                               480

 Number of orbital functions:                                               1300
 Number of independent orbital functions:                                   1300

 Extrapolation method: ASPC


 SCF WAVEFUNCTION OPTIMIZATION

  Step     Update method      Time    Convergence         Total energy    Change
  ------------------------------------------------------------------------------
     1 Broy./Diag. 0.20E+00    2.5     0.07218331      -814.3731817491 -8.14E+02
     2 Broy./Diag. 0.20E+00    2.9     0.02711475      -814.4264422218 -5.33E-02
     3 Broy./Diag. 0.20E+00    2.8     0.01462407      -814.4274427214 -1.00E-03
     4 Broy./Diag. 0.20E+00    3.2     0.00569750      -814.4098047101  1.76E-02
     5 Broy./Diag. 0.20E+00    4.2     0.00341091      -814.3946297387  1.52E-02
     6 Broy./Diag. 0.20E+00    3.4     0.00139759      -814.3859497336  8.68E-03
     7 Broy./Diag. 0.20E+00    3.6     0.00084570      -814.3845810963  1.37E-03
     8 Broy./Diag. 0.20E+00    3.4     0.00064867      -814.3868464587 -2.27E-03
     9 Broy./Diag. 0.20E+00    3.4     0.00037245      -814.3880383955 -1.19E-03
    10 Broy./Diag. 0.20E+00    3.3     0.00012660      -814.3891634386 -1.13E-03
    11 Broy./Diag. 0.20E+00    3.4     0.00007849      -814.3893404372 -1.77E-04
    12 Broy./Diag. 0.20E+00    3.3     0.00005047      -814.3894505400 -1.10E-04
    13 Broy./Diag. 0.20E+00    3.3     0.00002256      -814.3894186778  3.19E-05

  *** SCF run converged in    13 steps ***


  Electronic density on regular grids:       -559.9999999988        0.0000000012
  Core density on regular grids:              559.9999998894       -0.0000001106
  Total charge density on r-space grids:       -0.0000001094
  Total charge density g-space grids:          -0.0000001094

  Overlap energy of the core charge distribution:               0.00009625635812
  Self energy of the core charge distribution:              -1737.24439639931302
  Core Hamiltonian energy:                                    402.62082599027309
  Hartree energy:                                             710.75753216392161
  Exchange-correlation energy:                               -188.90900763249851
  Dispersion energy:                                           -0.71846349335605
  Electronic entropic energy:                                  -0.89600482196092
  Fermi energy:                                                 0.12617064755345

  Total energy:                                              -814.38941867780466

 ENERGY| Total FORCE_EVAL ( QS ) energy [hartree]           -814.389370140796132

 MD| ***************************************************************************
 MD| Step number                                                              16
 MD| Time [fs]                                                          8.000000
 MD| Conserved quantity [hartree]                            -0.807911017518E+03
 MD| ---------------------------------------------------------------------------
 MD|                                          Instantaneous             Averages
 MD| CPU time per MD step [s]                     47.890646            46.719448
 MD| Energy drift per atom [K]          -0.257594198742E+02  -0.218706497107E+02
 MD| Potential energy [hartree]         -0.814389370141E+03  -0.811623987318E+03
 MD| Kinetic energy [hartree]            0.640991157328E+01   0.369835902384E+01
 MD| Temperature [K]                           13630.219328          7864.296421
 MD| ***************************************************************************

 Number of electrons:                                                        560
 Number of occupied orbitals:                                                440
 Number of molecular orbitals:                                               480

 Number of orbital functions:                                               1300
 Number of independent orbital functions:                                   1300

 Extrapolation method: ASPC


 SCF WAVEFUNCTION OPTIMIZATION

  Step     Update method      Time    Convergence         Total energy    Change
  ------------------------------------------------------------------------------
     1 Broy./Diag. 0.20E+00    3.0     0.07295665      -814.5789049221 -8.15E+02
     2 Broy./Diag. 0.20E+00    3.0     0.02916771      -814.6102841966 -3.14E-02
     3 Broy./Diag. 0.20E+00    3.4     0.01423093      -814.6229336049 -1.26E-02
     4 Broy./Diag. 0.20E+00    3.0     0.00623235      -814.6109381327  1.20E-02
     5 Broy./Diag. 0.20E+00    3.3     0.00349347      -814.5995639970  1.14E-02
     6 Broy./Diag. 0.20E+00    3.3     0.00146459      -814.5916673846  7.90E-03
     7 Broy./Diag. 0.20E+00    3.1     0.00093017      -814.5905605579  1.11E-03
     8 Broy./Diag. 0.20E+00    3.4     0.00072311      -814.5930269775 -2.47E-03
     9 Broy./Diag. 0.20E+00    3.3     0.00039867      -814.5941510574 -1.12E-03
    10 Broy./Diag. 0.20E+00    3.5     0.00011927      -814.5952927405 -1.14E-03
    11 Broy./Diag. 0.20E+00    3.4     0.00008233      -814.5954514462 -1.59E-04
    12 Broy./Diag. 0.20E+00    3.4     0.00005138      -814.5955447273 -9.33E-05
    13 Broy./Diag. 0.20E+00    3.4     0.00002446      -814.5955131712  3.16E-05

  *** SCF run converged in    13 steps ***


  Electronic density on regular grids:       -559.9999999988        0.0000000012
  Core density on regular grids:              559.9999998894       -0.0000001106
  Total charge density on r-space grids:       -0.0000001094
  Total charge density g-space grids:          -0.0000001094

  Overlap energy of the core charge distribution:               0.00006974403425
  Self energy of the core charge distribution:              -1737.24439639931302
  Core Hamiltonian energy:                                    402.04986577106735
  Hartree energy:                                             710.99494755528463
  Exchange-correlation energy:                               -188.78034061072606
  Dispersion energy:                                           -0.71838331884564
  Electronic entropic energy:                                  -0.89727514779910
  Fermi energy:                                                 0.12611364466296

  Total energy:                                              -814.59551317116052

 ENERGY| Total FORCE_EVAL ( QS ) energy [hartree]           -814.595472330812640

 MD| ***************************************************************************
 MD| Step number                                                              17
 MD| Time [fs]                                                          8.500000
 MD| Conserved quantity [hartree]                            -0.807910723654E+03
 MD| ---------------------------------------------------------------------------
 MD|                                          Instantaneous             Averages
 MD| CPU time per MD step [s]                     47.846084            46.785721
 MD| Energy drift per atom [K]          -0.248314716869E+02  -0.220448157093E+02
 MD| Potential energy [hartree]         -0.814595472331E+03  -0.811798780554E+03
 MD| Kinetic energy [hartree]            0.658881377799E+01   0.386838577408E+01
 MD| Temperature [K]                           14010.642093          8225.846167
 MD| ***************************************************************************

 Number of electrons:                                                        560
 Number of occupied orbitals:                                                440
 Number of molecular orbitals:                                               480

 Number of orbital functions:                                               1300
 Number of independent orbital functions:                                   1300

 Extrapolation method: ASPC


 SCF WAVEFUNCTION OPTIMIZATION

  Step     Update method      Time    Convergence         Total energy    Change
  ------------------------------------------------------------------------------
     1 Broy./Diag. 0.20E+00    2.7     0.08358747      -814.7593079427 -8.15E+02
     2 Broy./Diag. 0.20E+00    3.1     0.03150572      -814.7701715619 -1.09E-02
     3 Broy./Diag. 0.20E+00    3.1     0.01411035      -814.7938225714 -2.37E-02
     4 Broy./Diag. 0.20E+00    3.2     0.00642071      -814.7865011482  7.32E-03
     5 Broy./Diag. 0.20E+00    3.2     0.00349887      -814.7788986778  7.60E-03
     6 Broy./Diag. 0.20E+00    3.4     0.00149475      -814.7719000459  7.00E-03
     7 Broy./Diag. 0.20E+00    3.3     0.00088629      -814.7712711705  6.29E-04
     8 Broy./Diag. 0.20E+00    3.3     0.00072013      -814.7738406644 -2.57E-03
     9 Broy./Diag. 0.20E+00    3.5     0.00041657      -814.7749210523 -1.08E-03
    10 Broy./Diag. 0.20E+00    3.4     0.00013066      -814.7760172384 -1.10E-03
[...]


  Electronic density on regular grids:       -559.9999999988        0.0000000012
  Core density on regular grids:              559.9999998897       -0.0000001103
  Total charge density on r-space grids:       -0.0000001091
  Total charge density g-space grids:          -0.0000001091

  Overlap energy of the core charge distribution:               0.00000676690752
  Self energy of the core charge distribution:              -1737.24439639931302
  Core Hamiltonian energy:                                    393.60325632634488
  Hartree energy:                                             715.08930489636100
  Exchange-correlation energy:                               -186.64125814104722
  Dispersion energy:                                           -0.72065368220280
  Electronic entropic energy:                                  -0.88193759072061
  Fermi energy:                                                 0.12435196167591

  Total energy:                                              -816.79567782094978

 ENERGY| Total FORCE_EVAL ( QS ) energy [hartree]           -816.795825191539166

 MD| ***************************************************************************
 MD| Step number                                                             399
 MD| Time [fs]                                                        199.500000
 MD| Conserved quantity [hartree]                            -0.807908825991E+03
 MD| ---------------------------------------------------------------------------
 MD|                                          Instantaneous             Averages
 MD| CPU time per MD step [s]                     35.743519            39.694563
 MD| Energy drift per atom [K]          -0.188391325075E+02  -0.189160930746E+02
 MD| Potential energy [hartree]         -0.816795825192E+03  -0.816373664760E+03
 MD| Kinetic energy [hartree]            0.376834903307E+01   0.556693610455E+01
 MD| Temperature [K]                            8013.125179         11837.692177
 MD| ***************************************************************************

 Number of electrons:                                                        560
 Number of occupied orbitals:                                                437
 Number of molecular orbitals:                                               480

 Number of orbital functions:                                               1300
 Number of independent orbital functions:                                   1300

 Extrapolation method: ASPC


 SCF WAVEFUNCTION OPTIMIZATION

  Step     Update method      Time    Convergence         Total energy    Change
  ------------------------------------------------------------------------------
     1 Broy./Diag. 0.20E+00    3.0     0.01811588      -816.7988286748 -8.17E+02
     2 Broy./Diag. 0.20E+00    3.2     0.00926081      -816.7843219414  1.45E-02
     3 Broy./Diag. 0.20E+00    3.5     0.00307731      -816.7958474770 -1.15E-02
     4 Broy./Diag. 0.20E+00    3.6     0.00121687      -816.7993175936 -3.47E-03
     5 Broy./Diag. 0.20E+00    3.4     0.00048991      -816.8010128502 -1.70E-03
     6 Broy./Diag. 0.20E+00    3.7     0.00026439      -816.8014705944 -4.58E-04
     7 Broy./Diag. 0.20E+00    3.9     0.00008035      -816.8018364686 -3.66E-04
     8 Broy./Diag. 0.20E+00    4.1     0.00006247      -816.8019751987 -1.39E-04
     9 Broy./Diag. 0.20E+00    3.5     0.00002702      -816.8019916503 -1.65E-05

  *** SCF run converged in     9 steps ***


  Electronic density on regular grids:       -559.9999999988        0.0000000012
  Core density on regular grids:              559.9999998896       -0.0000001104
  Total charge density on r-space grids:       -0.0000001092
  Total charge density g-space grids:          -0.0000001092

  Overlap energy of the core charge distribution:               0.00000647485793
  Self energy of the core charge distribution:              -1737.24439639931302
  Core Hamiltonian energy:                                    393.59617474181317
  Hartree energy:                                             715.09013456644539
  Exchange-correlation energy:                               -186.64152385514780
  Dispersion energy:                                           -0.72055410392468
  Electronic entropic energy:                                  -0.88183304634602
  Fermi energy:                                                 0.12431934150390

  Total energy:                                              -816.80199165027511

 ENERGY| Total FORCE_EVAL ( QS ) energy [hartree]           -816.802128922895690

 MD| ***************************************************************************
 MD| Step number                                                             400
 MD| Time [fs]                                                        200.000000
 MD| Conserved quantity [hartree]                            -0.807908829042E+03
 MD| ---------------------------------------------------------------------------
 MD|                                          Instantaneous             Averages
 MD| CPU time per MD step [s]                     37.443447            39.688935
 MD| Energy drift per atom [K]          -0.188487668984E+02  -0.189159247592E+02
 MD| Potential energy [hartree]         -0.816802128923E+03  -0.816374735920E+03
 MD| Kinetic energy [hartree]            0.377367393589E+01   0.556245294913E+01
 MD| Temperature [K]                            8024.448205         11828.159067
 MD| ***************************************************************************

 -------------------------------------------------------------------------------
 -                                                                             -
 -                                DBCSR STATISTICS                             -
 -                                                                             -
 -------------------------------------------------------------------------------
 COUNTER                                    TOTAL       BLAS       SMM       ACC
 flops    13 x    32 x    13        3224955452160     100.0%      0.0%      0.0%     
 flops    13 x    13 x   480        3850547376000     100.0%      0.0%      0.0%     
 flops inhomo. stacks                           0       0.0%      0.0%      0.0%
 flops total                         7.075503E+12     100.0%      0.0%      0.0%
 flops max/rank                      7.075503E+12     100.0%      0.0%      0.0%
 matmuls inhomo. stacks                         0       0.0%      0.0%      0.0%
 matmuls total                          321898910     100.0%      0.0%      0.0%
 number of processed stacks                351520     100.0%      0.0%      0.0%
 average stack size                                   915.7       0.0       0.0
 marketing flops                    10.201388E+12
 -------------------------------------------------------------------------------
 # multiplications                           6695
 max memory usage/rank               0.000000E+00
 # max total images/rank                        1
 # max 3D layers                                1
 # MPI messages exchanged                       0
 -------------------------------------------------------------------------------
 -                                                                             -
 -                      DBCSR MESSAGE PASSING PERFORMANCE                      -
 -                                                                             -
 -------------------------------------------------------------------------------
 ROUTINE             CALLS      AVE VOLUME [Bytes]
 MP_Bcast                3                     12.
 MP_Allreduce        38129                      8.
 MP_Alltoall        168730                4639434.
 MP_ISend            26780                  55232.
 MP_IRecv            26780                  55232.
 -------------------------------------------------------------------------------

 -------------------------------------------------------------------------------
 -                                                                             -
 -                                DBM STATISTICS                               -
 -                                                                             -
 -------------------------------------------------------------------------------
    M  x    N  x    K                                          COUNT     PERCENT
 -------------------------------------------------------------------------------

 -------------------------------------------------------------------------------
 -                                                                             -
 -                                GRID STATISTICS                              -
 -                                                                             -
 -------------------------------------------------------------------------------
 LP    KERNEL             BACKEND                              COUNT     PERCENT
 4     collocate ortho    CPU                              209499177      49.99%
 4     integrate ortho    CPU                              189983679      45.33%
 5     integrate ortho    CPU                               19515498       4.66%
 0     collocate general  CPU                                  40100       0.01%
 1     integrate general  CPU                                  40100       0.01%
 -------------------------------------------------------------------------------

 MEMORY| Estimated peak process memory [MiB]                                   0

 -------------------------------------------------------------------------------
 -                                                                             -
 -                         MESSAGE PASSING PERFORMANCE                         -
 -                                                                             -
 -------------------------------------------------------------------------------

 ROUTINE             CALLS      AVE VOLUME [Bytes]
 MP_Group                4
 MP_Bcast             8612                   5045.
 MP_Allreduce        58857                    360.
 MP_Sync              4308
 MP_comm_split        4304
 -------------------------------------------------------------------------------


 -------------------------------------------------------------------------------
 -                                                                             -
 -                           R E F E R E N C E S                               -
 -                                                                             -
 -------------------------------------------------------------------------------
 
 CP2K version 2025.1, the CP2K developers group (2025).
 CP2K is freely available from https://www.cp2k.org/ .
 
 T. D. Kuehne, M. Iannuzzi, M. Del Ben, V. V. Rybkin, P. Seewald, F. Stein, T. 
 Laino, R. Z. Khaliullin, O. Schuett, F. Schiffmann, D. Golze, J. Wilhelm, S. 
 Chulkov, M. H. Bani-Hashemian, V. Weber, U. Borstnik, M. Taillefumier, A. S. 
 Jakobovits, A. Lazzaro, H. Pabst, T. Mueller, R. Schade, M. Guidon, S. 
 Andermatt, N. Holmberg, G. K. Schenter, A. Hehn, A. Bussy, F. Belleflamme, G. 
 Tabacchi, A. Gloess, M. Lass, I. Bethune, C. J. Mundy, C. Plessl, M. Watkins, 
 J. VandeVondele, M. Krack, J. Hutter.
 J. Chem. Phys. 152, 194103 (2020).
 CP2K: An electronic structure and molecular dynamics software package - 
 Quickstep: Efficient and accurate electronic structure calculations.
 https://doi.org/10.1063/5.0007045

 L. Goerigk, A. Hansen, C. Bauer, S. Ehrlich, A. Najibi, S. Grimme.
 Phys. Chem. Chem. Phys. 19, 32184-32215 (2017).
 A look at the density functional theory zoo with the advanced GMTKN55 database 
 for general main group thermochemistry, kinetics and noncovalent interactions.
 https://doi.org/10.1039/C7CP04913G

 O. Schuett, P. Messmer, J. Hutter, J. VandeVondele.
 Electronic Structure Calculations on Graphics Processing Units, 173-190 (2016).
 GPU-Accelerated Sparse Matrix-Matrix Multiplication for Linear Scaling Density 
 Functional Theory.
 https://doi.org/10.1002/9781118670712.ch8

 J. Hutter, M. Iannuzzi, F. Schiffmann, J. VandeVondele.
 WIREs Comput Mol Sci. 4, 15-25 (2014).
 CP2K: atomistic simulations of condensed matter systems.
 https://doi.org/10.1002/wcms.1159

 U. Borstnik, J. VandeVondele, V. Weber, J. Hutter.
 Parallel Comput. 40, 47-58 (2014).
 Sparse matrix multiplication: The distributed block-compressed sparse row 
 library.
 https://doi.org/10.1016/j.parco.2014.03.012

 S. Grimme, S. Ehrlich, L. Goerigk.
 J. Comput. Chem. 32, 1456 (2011).
 Effect of the damping function in dispersion corrected density functional 
 theory.
 https://doi.org/10.1002/jcc.21759

 S. Grimme, J. Antony, S. Ehrlich, H. Krieg.
 J. Chem. Phys. 132, 154104 (2010).
 A consistent and accurate ab initio parametrization of density functional 
 dispersion correction (DFT-D) for the 94 elements H-Pu.
 https://doi.org/10.1063/1.3382344

 G. Bussi, D. Donadio, M. Parrinello.
 J. Chem. Phys. 126, 014101 (2007).
 Canonical sampling through velocity rescaling.
 https://doi.org/10.1063/1.2408420

 J. VandeVondele, J. Hutter.
 J. Chem. Phys. 127, 114105 (2007).
 Gaussian basis sets for accurate calculations on molecular systems in gas and 
 condensed phases.
 https://doi.org/10.1063/1.2770708

 T. D. Khne, M. Krack, F. R. Mohamed, M. Parrinello.
 Phys. Rev. Lett. 98, 066401 (2007).
 Efficient and accurate Car-Parrinello-like approach to Born-Oppenheimer 
 molecular dynamics.
 https://doi.org/10.1103/PhysRevLett.98.066401

 J. VandeVondele, M. Krack, F. Mohamed, M. Parrinello, T. Chassaing, J. Hutter.
 Comput. Phys. Commun. 167, 103-128 (2005).
 QUICKSTEP: Fast and accurate density functional calculations using a mixed 
 Gaussian and plane waves approach.
 https://doi.org/10.1016/j.cpc.2004.12.014

 M. Krack.
 Theor. Chem. Acc. 114, 145-152 (2005).
 Pseudopotentials for H to Kr optimized for gradient-corrected 
 exchange-correlation functionals.
 https://doi.org/10.1007/s00214-005-0655-y

 M. Frigo, S. G. Johnson.
 Proc. IEEE 93, 216-231 (2005).
 The design and implementation of FFTW3.
 https://doi.org/10.1109/JPROC.2004.840301

 J. Kolafa.
 J. Comput. Chem. 25, 335-342 (2004).
 Time-reversible always stable predictor-corrector method for molecular dynamics 
 of polarizable molecules.
 https://doi.org/10.1002/jcc.10385

 C. Hartwigsen, S. Goedecker, J. Hutter.
 Phys. Rev. B 58, 3641-3662 (1998).
 Relativistic separable dual-space Gaussian pseudopotentials from H to Rn.
 https://doi.org/10.1103/PhysRevB.58.3641

 G. Lippert, J. Hutter, M. Parrinello.
 Mol. Phys. 92, 477-487 (1997).
 A hybrid Gaussian and plane wave density functional scheme.
 https://doi.org/10.1080/002689797170220

 S. Goedecker, M. Teter, J. Hutter.
 Phys. Rev. B 54, 1703-1710 (1996).
 Separable dual-space Gaussian pseudopotentials.
 https://doi.org/10.1103/PhysRevB.54.1703

 J. P. Perdew, K. Burke, M. Ernzerhof.
 Phys. Rev. Lett. 77, 3865-3868 (1996).
 Generalized gradient approximation made simple.
 https://doi.org/10.1103/PhysRevLett.77.3865


 -------------------------------------------------------------------------------
 -                                                                             -
 -                                T I M I N G                                  -
 -                                                                             -
 -------------------------------------------------------------------------------
 SUBROUTINE                       CALLS  ASD         SELF TIME        TOTAL TIME
                                MAXIMUM       AVERAGE  MAXIMUM  AVERAGE  MAXIMUM
 CP2K                                 1  1.0     0.05     0.05 15876.52 15876.52
 qs_mol_dyn_low                       1  2.0     0.01     0.01 15875.58 15875.58
 qs_forces                          401  4.0     0.03     0.03 15874.59 15874.59
 velocity_verlet                    400  3.0     0.07     0.07 15832.81 15832.81
 qs_energies                        401  5.0     0.03     0.03 15006.74 15006.74
 scf_env_do_scf                     401  6.0     0.02     0.02 13888.44 13888.44
 scf_env_do_scf_inner_loop         3904  7.0     0.45     0.45 13888.24 13888.24
 qs_scf_new_mos                    3904  8.0     0.06     0.06  6288.74  6288.74
 eigensolver                       3904  9.0     0.07     0.07  5897.74  5897.74
 rebuild_ks_matrix                 4305  8.7     0.02     0.02  5403.72  5403.72
 qs_ks_build_kohn_sham_matrix      4305  9.7     0.46     0.46  5403.71  5403.71
 qs_ks_update_qs_env               3904  8.0     0.02     0.02  4813.55  4813.55
 cp_fm_syevd                       4304 10.2     0.04     0.04  4769.83  4769.83
 cp_fm_syevd_base                  4304 11.2  4721.55  4721.55  4721.55  4721.55
 fft_wrap_pw1pw2                  77089 12.9     1.17     1.17  3025.53  3025.53
 qs_vxc_create                     4305 10.7     0.04     0.04  2970.72  2970.72
 xc_vxc_pw_create                  4305 11.7   136.69   136.69  2970.68  2970.68
 fft_wrap_pw1pw2_200              51259 14.2   307.41   307.41  2870.62  2870.62
 qs_rho_update_rho_low             4305  8.1     0.02     0.02  2083.94  2083.94
 calculate_rho_elec                4305  9.1   107.09   107.09  2083.92  2083.92
 sum_up_and_integrate              4305 10.7     0.08     0.08  1869.60  1869.60
 integrate_v_rspace                4305 11.7     5.99     5.99  1851.30  1851.30
 fft3d_s                          77090 14.9  1743.58  1743.58  1743.71  1743.71
 xc_rho_set_and_dset_create        4305 12.7    56.36    56.36  1677.01  1677.01
 xc_pw_derive                     25830 13.7     0.28     0.28  1605.02  1605.02
 grid_integrate_task_list          4305 12.7  1471.21  1471.21  1471.21  1471.21
 grid_collocate_task_list          4305 10.1  1370.58  1370.58  1370.58  1370.58
 cp_fm_cholesky_restore           11712 10.0  1183.50  1183.50  1183.50  1183.50
 xc_pw_divergence                  4305 12.7     0.15     0.15  1131.76  1131.76
 gspace_mixing                     3503  8.0    84.43    84.43   887.87   887.87
 xc_functional_eval                4305 13.7     0.03     0.03   839.30   839.30
 pbe_lda_eval                      4305 14.7   839.27   839.27   839.27   839.27
 init_scf_run                       401  6.0     0.02     0.02   673.42   673.42
 broyden_mixing                    3503  9.0   615.51   615.51   615.58   615.58
 scf_env_initial_rho_setup          401  7.0     0.01     0.01   614.00   614.00
 density_rs2pw                     4305 10.1     0.27     0.27   606.25   606.25
 qs_ks_update_qs_env_forces         401  5.0     0.00     0.00   598.62   598.62
 pw_scatter_s                     42248 15.1   558.95   558.95   558.95   558.95
 wfi_extrapolate                    401  8.0     0.25     0.25   557.72   557.72
 qs_energies_init_hamiltonians      401  6.0     0.01     0.01   410.29   410.29
 potential_pw2rs                   4305 12.7     3.16     3.16   374.10   374.10
 dbcsr_copy                       32613 11.3     9.68     9.68   364.41   364.41
 dbcsr_copy_into_existing           802  8.0   354.50   354.50   354.51   354.51
 dbcsr_multiply_generic            6695 11.0     2.48     2.48   326.07   326.07
 cp_dbcsr_plus_fm_fm_t_native      4705  9.8     0.12     0.12   321.38   321.38
 -------------------------------------------------------------------------------

 The number of warnings for this run is : 0
 
 -------------------------------------------------------------------------------
  **** **** ******  **  PROGRAM ENDED AT                 2025-10-01 19:41:14.623
 ***** ** ***  *** **   PROGRAM RAN ON                                       Mac
 **    ****   ******    PROGRAM RAN BY                               jdmusgraves
 ***** **    ** ** **   PROGRAM PROCESS ID                                 74100
  **** **  *******  **  PROGRAM STOPPED IN /Users/jdmusgraves/GitHub/local_shake
                                           down_kit
