 DBCSR| CPU Multiplication driver                                           BLAS (U)
 DBCSR| Multrec recursion limit                                              512 (U)
 DBCSR| Multiplication stack size                                           1000 (D)
 DBCSR| Maximum elements for images                                    UNLIMITED (U)
 DBCSR| Multiplicative factor virtual images                                   1 (U)
 DBCSR| Use multiplication densification                                       T (D)
 DBCSR| Multiplication size stacks                                             3 (U)
 DBCSR| Use memory pool for CPU allocation                                     F (U)
 DBCSR| Number of 3D layers                                               SINGLE (U)
 DBCSR| Use MPI memory allocation                                              F (U)
 DBCSR| Use RMA algorithm                                                      F (U)
 DBCSR| Use Communication thread                                               T (U)
 DBCSR| Communication thread load                                             53 (D)
 DBCSR| MPI: My process id                                                     0
 DBCSR| MPI: Number of processes                                               1
 DBCSR| OMP: Current number of threads                                        10
 DBCSR| OMP: Max number of threads                                            10
 DBCSR| Split modifier for TAS multiplication algorithm                  1.0E+00 (U)


  **** **** ******  **  PROGRAM STARTED AT               2025-10-02 13:19:17.284
 ***** ** ***  *** **   PROGRAM STARTED ON                                   Mac
 **    ****   ******    PROGRAM STARTED BY                           jdmusgraves
 ***** **    ** ** **   PROGRAM PROCESS ID                                 39506
  **** **  *******  **  PROGRAM STARTED IN /Users/jdmusgraves/GitHub/local_shake
                                           down_kit

 CP2K| version string:                                       CP2K version 2025.1
 CP2K| source code revision number:                                             
 CP2K| cp2kflags: omp libint fftw3 libxc parallel scalapack no_statm_access     
 CP2K| is freely available from                            https://www.cp2k.org/
 CP2K| Program compiled at                                   2025-01-01 12:26:53
 CP2K| Program compiled on                                                      
 CP2K| Program compiled for                                                arm64
 CP2K| Data directory path      /opt/homebrew/Cellar/cp2k/2025.1/share/cp2k/data
 CP2K| Input file name                               inputs/md_as40se60_melt.inp

 GLOBAL| Force Environment number                                              1
 GLOBAL| Basis set file name                                        BASIS_MOLOPT
 GLOBAL| Potential file name                                      GTH_POTENTIALS
 GLOBAL| MM Potential file name                                     MM_POTENTIAL
 GLOBAL| Coordinate file name                       inputs/as40se60_100_seed.xyz
 GLOBAL| Method name                                                        CP2K
 GLOBAL| Project name                                            as40se60_phase2
 GLOBAL| Run type                                                             MD
 GLOBAL| FFT library                                                       FFTW3
 GLOBAL| Diagonalization library                                       ScaLAPACK
 GLOBAL| DGEMM library                                                      BLAS
 GLOBAL| Orthonormality check for eigenvectors                          DISABLED
 GLOBAL| Matrix multiplication library                                 ScaLAPACK
 GLOBAL| All-to-all communication in single precision                          F
 GLOBAL| FFTs using library dependent lengths                                  F
 GLOBAL| Grid backend                                                       AUTO
 GLOBAL| Global print level                                                  LOW
 GLOBAL| MPI I/O enabled                                                       T
 GLOBAL| Total number of message passing processes                             1
 GLOBAL| Number of threads for this process                                   10
 GLOBAL| This output is from process                                           0
 GLOBAL| OpenMP stack size per thread (OMP_STACKSIZE)                    default
 GLOBAL| CPU model name                                                  UNKNOWN
 GLOBAL| CPUID                                                              2000

 MEMORY| system memory details [Kb]
 MEMORY|                        rank 0           min           max       average
 MEMORY| MemTotal                    0             0             0             0
 MEMORY| MemFree                     0             0             0             0
 MEMORY| Buffers                     0             0             0             0
 MEMORY| Cached                      0             0             0             0
 MEMORY| Slab                        0             0             0             0
 MEMORY| SReclaimable                0             0             0             0
 MEMORY| MemLikelyFree               0             0             0             0


 GENERATE|  Preliminary Number of Bonds generated:                             0
 GENERATE|  Achieved consistency in connectivity generation.

 *******************************************************************************
 *******************************************************************************
 **                                                                           **
 **     #####                         ##              ##                      **
 **    ##   ##            ##          ##              ##                      **
 **   ##     ##                       ##            ######                    **
 **   ##     ##  ##   ##  ##   #####  ##  ##   ####   ##    #####    #####    **
 **   ##     ##  ##   ##  ##  ##      ## ##   ##      ##   ##   ##  ##   ##   **
 **   ##  ## ##  ##   ##  ##  ##      ####     ###    ##   ######   ######    **
 **    ##  ###   ##   ##  ##  ##      ## ##      ##   ##   ##       ##        **
 **     #######   #####   ##   #####  ##  ##  ####    ##    #####   ##        **
 **           ##                                                    ##        **
 **                                                                           **
 **                                                ... make the atoms dance   **
 **                                                                           **
 **            Copyright (C) by CP2K developers group (2000-2025)             **
 **                      J. Chem. Phys. 152, 194103 (2020)                    **
 **                                                                           **
 *******************************************************************************


 TOTAL NUMBERS AND MAXIMUM NUMBERS

  Total number of            - Atomic kinds:                                   2
                             - Atoms:                                        100
                             - Shell sets:                                   100
                             - Shells:                                       500
                             - Primitive Cartesian functions:                400
                             - Cartesian basis functions:                   1400
                             - Spherical basis functions:                   1300

  Maximum angular momentum of the orbital basis functions:                     2


 SCF PARAMETERS         Density guess:                                   RESTART
                        --------------------------------------------------------
                        max_scf:                                             150
                        max_scf_history:                                       0
                        max_diis:                                              4
                        --------------------------------------------------------
                        eps_scf:                                        1.00E-06
                        eps_scf_history:                                0.00E+00
                        eps_diis:                                       1.00E-01
                        eps_eigval:                                     1.00E-05
                        --------------------------------------------------------
                        level_shift [a.u.]:                             0.000000
                        added MOs                                        40    0
                        --------------------------------------------------------
                        Mixing method:                            BROYDEN_MIXING
                                                charge density mixing in g-space
                        --------------------------------------------------------
                        Smear method:                                FERMI_DIRAC
                        Electronic temperature [K]:                        300.0
                        Electronic temperature [a.u.]:                  9.50E-04
                        Accuracy threshold:                             1.00E-10
                        --------------------------------------------------------
                        No outer SCF

 MD_PAR| Molecular dynamics protocol (MD input parameters)
 MD_PAR| Ensemble type                                                       NVT
 MD_PAR| Number of time steps                                                  3
 MD_PAR| Time step [fs]                                                 0.100000
 MD_PAR| Temperature [K]                                             1500.000000
 MD_PAR| Temperature tolerance [K]                                      0.000000
 MD_PAR| Print MD information every                                    1 step(s)
 MD_PAR| File type   Print frequency [steps]                          File names
 MD_PAR| Coordinates        200 as40se60_phase2-as40se60_phase2-pos.xyz-pos-1.xy
 MD_PAR| Velocities         200 as40se60_phase2-as40se60_phase2-vel.xyz-vel-1.xy
 MD_PAR| Energies             1                           as40se60_phase2-1.ener
 MD_PAR| Dump               200 as40se60_phase2-as40se60_phase2.restart-1.restar

 ROT| Rotational analysis information
 ROT| Principal axes and moments of inertia [a.u.]
 ROT|                           1                   2                   3
 ROT| Eigenvalues      1.75789868623E+09   1.79391159273E+09   1.91255940231E+09
 ROT|      x             -0.210013670247      0.719449238534     -0.662032515426
 ROT|      y              0.775282068462      0.535099603628      0.335568366386
 ROT|      z             -0.595677742266      0.442787993706      0.670154325510
 ROT| Number of rotovibrational vectors                                        6

 DOF| Calculation of degrees of freedom
 DOF| Number of atoms                                                        100
 DOF| Number of intramolecular constraints                                     0
 DOF| Number of intermolecular constraints                                     0
 DOF| Invariants (translations + rotations)                                    0
 DOF| Degrees of freedom                                                     300

 DOF| Restraints information
 DOF| Number of intramolecular restraints                                      0
 DOF| Number of intermolecular restraints                                      0

 THERMOSTAT| Thermostat information for PARTICLES
 THERMOSTAT| Type of thermostat            Canonical Sampling/Velocity Rescaling
 THERMOSTAT| CSVR time constant [fs]                                   30.000000
 THERMOSTAT| Initial kinetic energy                           0.000000000000E+00
 THERMOSTAT| End of thermostat information for PARTICLES

 MD_VEL| Velocities initialization
 MD_VEL| Initial temperature [K]                                     1500.000000
 MD_VEL| COM velocity            -0.0000000000    -0.0000000000    -0.0000000000

 Number of electrons:                                                        560
 Number of occupied orbitals:                                                280
 Number of molecular orbitals:                                               320

 Number of orbital functions:                                               1300
 Number of independent orbital functions:                                   1300

 Extrapolation method: initial_guess

 *** WARNING in qs_initial_guess.F:303 :: User requested to restart the    ***
 *** wavefunction from the file named: as40se60_phase2-RESTART.wfn. This   ***
 *** file does not exist. Please check the existence of the file or change ***
 *** properly the value of the keyword WFN_RESTART_FILE_NAME. Calculation  ***
 *** continues using ATOMIC GUESS.                                         ***



 SCF WAVEFUNCTION OPTIMIZATION

  Step     Update method      Time    Convergence         Total energy    Change
  ------------------------------------------------------------------------------
     1 NoMix/Diag. 0.30E+00    2.6     0.71020185      -823.7693830616 -8.24E+02
     2 Broy./Diag. 0.30E+00    3.4     0.82710539      -807.3101995876  1.65E+01
     3 Broy./Diag. 0.30E+00    3.6     0.54623750      -807.5264483059 -2.16E-01
     4 Broy./Diag. 0.30E+00    3.6     0.32822670      -808.0941604825 -5.68E-01
     5 Broy./Diag. 0.30E+00    3.7     0.54538868      -808.4969104806 -4.03E-01
     6 Broy./Diag. 0.30E+00    3.7     0.44752015      -808.1457911311  3.51E-01
     7 Broy./Diag. 0.30E+00    3.7     0.18284785      -808.5262784670 -3.80E-01
     8 Broy./Diag. 0.30E+00    3.7     0.05623479      -808.3494487361  1.77E-01
     9 Broy./Diag. 0.30E+00    3.7     0.03151887      -808.2869798486  6.25E-02
    10 Broy./Diag. 0.30E+00    3.7     0.01979233      -808.2350171595  5.20E-02
    11 Broy./Diag. 0.30E+00    3.8     0.01418724      -808.1854094674  4.96E-02
    12 Broy./Diag. 0.30E+00    3.7     0.01306338      -808.1620397108  2.34E-02
    13 Broy./Diag. 0.30E+00    3.8     0.01200471      -808.1572662231  4.77E-03
    14 Broy./Diag. 0.30E+00    3.7     0.00739265      -808.1405446503  1.67E-02
    15 Broy./Diag. 0.30E+00    3.8     0.00230762      -808.1438314770 -3.29E-03
    16 Broy./Diag. 0.30E+00    3.7     0.00330824      -808.1444395191 -6.08E-04
    17 Broy./Diag. 0.30E+00    3.9     0.00225282      -808.1444649213 -2.54E-05
    18 Broy./Diag. 0.30E+00    3.9     0.00150931      -808.1467901265 -2.33E-03
    19 Broy./Diag. 0.30E+00    3.7     0.00156407      -808.1492612379 -2.47E-03
    20 Broy./Diag. 0.30E+00    3.7     0.00088232      -808.1494248907 -1.64E-04
    21 Broy./Diag. 0.30E+00    3.8     0.00032013      -808.1510523323 -1.63E-03
    22 Broy./Diag. 0.30E+00    3.8     0.00031246      -808.1517109271 -6.59E-04
    23 Broy./Diag. 0.30E+00    3.8     0.00039697      -808.1519926978 -2.82E-04
    24 Broy./Diag. 0.30E+00    3.7     0.00020919      -808.1522479019 -2.55E-04
    25 Broy./Diag. 0.30E+00    3.8     0.00017586      -808.1523285418 -8.06E-05
    26 Broy./Diag. 0.30E+00    3.7     0.00014893      -808.1521809055  1.48E-04
    27 Broy./Diag. 0.30E+00    3.8     0.00006265      -808.1522361077 -5.52E-05
    28 Broy./Diag. 0.30E+00    3.7     0.00003945      -808.1521531436  8.30E-05
    29 Broy./Diag. 0.30E+00    3.7     0.00005544      -808.1520552106  9.79E-05
    30 Broy./Diag. 0.30E+00    3.7     0.00003863      -808.1520203411  3.49E-05
    31 Broy./Diag. 0.30E+00    3.8     0.00003715      -808.1519945262  2.58E-05
    32 Broy./Diag. 0.30E+00    3.7     0.00002223      -808.1519471517  4.74E-05
    33 Broy./Diag. 0.30E+00    3.8     0.00000821      -808.1519489635 -1.81E-06
    34 Broy./Diag. 0.30E+00    3.7     0.00000790      -808.1519422575  6.71E-06
    35 Broy./Diag. 0.30E+00    3.7     0.00001159      -808.1519324919  9.77E-06
    36 Broy./Diag. 0.30E+00    3.7     0.00000669      -808.1519401043 -7.61E-06
    37 Broy./Diag. 0.30E+00    3.8     0.00000652      -808.1519433473 -3.24E-06
    38 Broy./Diag. 0.30E+00    3.7     0.00000441      -808.1519427989  5.48E-07
    39 Broy./Diag. 0.30E+00    3.7     0.00000193      -808.1519512282 -8.43E-06
    40 Broy./Diag. 0.30E+00    3.7     0.00000169      -808.1519527943 -1.57E-06
    41 Broy./Diag. 0.30E+00    3.7     0.00000193      -808.1519526261  1.68E-07
    42 Broy./Diag. 0.30E+00    3.8     0.00000128      -808.1519547885 -2.16E-06
    43 Broy./Diag. 0.30E+00    3.7     0.00000130      -808.1519553038 -5.15E-07
    44 Broy./Diag. 0.30E+00    3.8     0.00000086      -808.1519546514  6.52E-07

  *** SCF run converged in    44 steps ***


  Electronic density on regular grids:       -559.9999999999        0.0000000001
  Core density on regular grids:              559.9999999987       -0.0000000013
  Total charge density on r-space grids:       -0.0000000012
  Total charge density g-space grids:          -0.0000000012

  Overlap energy of the core charge distribution:               0.01878804220932
  Self energy of the core charge distribution:              -1737.24439639931302
  Core Hamiltonian energy:                                    411.18647759679192
  Hartree energy:                                             709.04816125233560
  Exchange-correlation energy:                               -190.43645292164450
  Dispersion energy:                                           -0.71845137320990
  Electronic entropic energy:                                  -0.00608084846670
  Fermi energy:                                                 0.12574719437766

  Total energy:                                              -808.15195465140960

 ENERGY| Total FORCE_EVAL ( QS ) energy [hartree]           -808.151953912589534

 MD_INI| MD initialization
 MD_INI| Potential energy [hartree]                          -0.808151953913E+03
 MD_INI| Kinetic energy [hartree]                             0.712533452240E+00
 MD_INI| Temperature [K]                                             1500.000000
 MD_INI| Cell volume [bohr^3]                                 1.884311149060E+04
 MD_INI| Cell volume [ang^3]                                  2.792261002858E+03
 MD_INI| Cell lengths [bohr]      2.66103675E+01  2.66103675E+01  2.66103675E+01
 MD_INI| Cell lengths [ang]       1.40816000E+01  1.40816000E+01  1.40816000E+01
 MD_INI| Cell angles [deg]        9.00000000E+01  9.00000000E+01  9.00000000E+01

 Number of electrons:                                                        560
 Number of occupied orbitals:                                                300
 Number of molecular orbitals:                                               320

 Number of orbital functions:                                               1300
 Number of independent orbital functions:                                   1300

 Extrapolation method: PS Nth order
 Extrapolation order:  0


 SCF WAVEFUNCTION OPTIMIZATION

  Step     Update method      Time    Convergence         Total energy    Change
  ------------------------------------------------------------------------------
     1 Broy./Diag. 0.30E+00    2.5     0.00393565      -808.1557079371 -8.08E+02
     2 Broy./Diag. 0.30E+00    3.4     0.01223467      -808.1517289584  3.98E-03
     3 Broy./Diag. 0.30E+00    3.5     0.01132142      -808.1646483271 -1.29E-02
     4 Broy./Diag. 0.30E+00    3.6     0.00344773      -808.1540283535  1.06E-02
     5 Broy./Diag. 0.30E+00    3.6     0.00158774      -808.1556405111 -1.61E-03
     6 Broy./Diag. 0.30E+00    3.7     0.00093334      -808.1557304369 -8.99E-05
     7 Broy./Diag. 0.30E+00    3.7     0.00039183      -808.1556590117  7.14E-05
     8 Broy./Diag. 0.30E+00    3.7     0.00019916      -808.1556627584 -3.75E-06
     9 Broy./Diag. 0.30E+00    3.7     0.00009418      -808.1556986938 -3.59E-05
    10 Broy./Diag. 0.30E+00    3.7     0.00004348      -808.1557173433 -1.86E-05
    11 Broy./Diag. 0.30E+00    3.7     0.00006327      -808.1556861407  3.12E-05
    12 Broy./Diag. 0.30E+00    3.7     0.00004299      -808.1557394486 -5.33E-05
    13 Broy./Diag. 0.30E+00    3.7     0.00002067      -808.1557083672  3.11E-05
    14 Broy./Diag. 0.30E+00    3.7     0.00001672      -808.1557271243 -1.88E-05
    15 Broy./Diag. 0.30E+00    3.7     0.00001079      -808.1557212245  5.90E-06
    16 Broy./Diag. 0.30E+00    3.7     0.00000546      -808.1557270229 -5.80E-06
    17 Broy./Diag. 0.30E+00    3.7     0.00000360      -808.1557243186  2.70E-06
    18 Broy./Diag. 0.30E+00    3.8     0.00000250      -808.1557274584 -3.14E-06
    19 Broy./Diag. 0.30E+00    3.8     0.00000182      -808.1557256815  1.78E-06
    20 Broy./Diag. 0.30E+00    3.8     0.00000170      -808.1557267815 -1.10E-06
    21 Broy./Diag. 0.30E+00    3.8     0.00000120      -808.1557258067  9.75E-07
    22 Broy./Diag. 0.30E+00    3.7     0.00000058      -808.1557264714 -6.65E-07

  *** SCF run converged in    22 steps ***


  Electronic density on regular grids:       -559.9999999999        0.0000000001
  Core density on regular grids:              559.9999999987       -0.0000000013
  Total charge density on r-space grids:       -0.0000000012
  Total charge density g-space grids:          -0.0000000012

  Overlap energy of the core charge distribution:               0.01873564321817
  Self energy of the core charge distribution:              -1737.24439639931302
  Core Hamiltonian energy:                                    411.18553902489998
  Hartree energy:                                             709.04583003154858
  Exchange-correlation energy:                               -190.43689673724180
  Dispersion energy:                                           -0.71846090838443
  Electronic entropic energy:                                  -0.00607712610205
  Fermi energy:                                                 0.12574568124914

  Total energy:                                              -808.15572647142403

 ENERGY| Total FORCE_EVAL ( QS ) energy [hartree]           -808.155725827581364

 MD| ***************************************************************************
 MD| Step number                                                               1
 MD| Time [fs]                                                          0.100000
 MD| Conserved quantity [hartree]                            -0.807439421641E+03
 MD| ---------------------------------------------------------------------------
 MD|                                          Instantaneous             Averages
 MD| CPU time per MD step [s]                    255.002227           255.002227
 MD| Energy drift per atom [K]          -0.372966122642E-02   0.000000000000E+00
 MD| Potential energy [hartree]         -0.808155725828E+03  -0.808155725828E+03
 MD| Kinetic energy [hartree]            0.712494982098E+00   0.712494982098E+00
 MD| Temperature [K]                            1499.919014          1499.919014
 MD| ***************************************************************************

 Number of electrons:                                                        560
 Number of occupied orbitals:                                                300
 Number of molecular orbitals:                                               320

 Number of orbital functions:                                               1300
 Number of independent orbital functions:                                   1300

 Extrapolation method: PS Nth order
 Extrapolation order:  1


 SCF WAVEFUNCTION OPTIMIZATION

  Step     Update method      Time    Convergence         Total energy    Change
  ------------------------------------------------------------------------------
     1 Broy./Diag. 0.30E+00    2.5     0.01113230      -808.1642385508 -8.08E+02
     2 Broy./Diag. 0.30E+00    3.5     0.03898842      -808.1502452692  1.40E-02
     3 Broy./Diag. 0.30E+00    3.9     0.03319174      -808.1934003719 -4.32E-02
     4 Broy./Diag. 0.30E+00    4.1     0.00652981      -808.1618783431  3.15E-02
     5 Broy./Diag. 0.30E+00    4.1     0.00252486      -808.1639111434 -2.03E-03
     6 Broy./Diag. 0.30E+00    4.1     0.00109581      -808.1641985351 -2.87E-04
     7 Broy./Diag. 0.30E+00    3.8     0.00047093      -808.1641258240  7.27E-05
     8 Broy./Diag. 0.30E+00    3.7     0.00025615      -808.1640044046  1.21E-04
     9 Broy./Diag. 0.30E+00    3.8     0.00025462      -808.1640582166 -5.38E-05
    10 Broy./Diag. 0.30E+00    3.7     0.00030417      -808.1643429519 -2.85E-04
    11 Broy./Diag. 0.30E+00    3.7     0.00011283      -808.1641123828  2.31E-04
    12 Broy./Diag. 0.30E+00    3.8     0.00008422      -808.1641732743 -6.09E-05
    13 Broy./Diag. 0.30E+00    3.8     0.00006003      -808.1642178512 -4.46E-05
    14 Broy./Diag. 0.30E+00    3.7     0.00003535      -808.1642250288 -7.18E-06
    15 Broy./Diag. 0.30E+00    3.8     0.00001386      -808.1642311757 -6.15E-06
    16 Broy./Diag. 0.30E+00    3.8     0.00001173      -808.1642442548 -1.31E-05
    17 Broy./Diag. 0.30E+00    3.7     0.00001271      -808.1642531414 -8.89E-06
    18 Broy./Diag. 0.30E+00    3.7     0.00000952      -808.1642429732  1.02E-05
    19 Broy./Diag. 0.30E+00    3.7     0.00000259      -808.1642514107 -8.44E-06
    20 Broy./Diag. 0.30E+00    3.8     0.00000234      -808.1642503934  1.02E-06
    21 Broy./Diag. 0.30E+00    3.8     0.00000233      -808.1642488631  1.53E-06
    22 Broy./Diag. 0.30E+00    3.8     0.00000135      -808.1642490725 -2.09E-07
    23 Broy./Diag. 0.30E+00    3.8     0.00000240      -808.1642483882  6.84E-07
    24 Broy./Diag. 0.30E+00    3.7     0.00000179      -808.1642464618  1.93E-06
    25 Broy./Diag. 0.30E+00    3.7     0.00000044      -808.1642476336 -1.17E-06

  *** SCF run converged in    25 steps ***


  Electronic density on regular grids:       -559.9999999999        0.0000000001
  Core density on regular grids:              559.9999999987       -0.0000000013
  Total charge density on r-space grids:       -0.0000000012
  Total charge density g-space grids:          -0.0000000012

  Overlap energy of the core charge distribution:               0.01863975429732
  Self energy of the core charge distribution:              -1737.24439639931302
  Core Hamiltonian energy:                                    411.17931558694352
  Hartree energy:                                             709.04339382607566
  Exchange-correlation energy:                               -190.43665719112460
  Dispersion energy:                                           -0.71847014086161
  Electronic entropic energy:                                  -0.00607306975858
  Fermi energy:                                                 0.12574427628132

  Total energy:                                              -808.16424763362784

 ENERGY| Total FORCE_EVAL ( QS ) energy [hartree]           -808.164247182052577

 MD| ***************************************************************************
 MD| Step number                                                               2
 MD| Time [fs]                                                          0.200000
 MD| Conserved quantity [hartree]                            -0.807439423743E+03
 MD| ---------------------------------------------------------------------------
 MD|                                          Instantaneous             Averages
 MD| CPU time per MD step [s]                     99.311951           177.157089
 MD| Energy drift per atom [K]          -0.103646891723E-01  -0.518234458616E-02
 MD| Potential energy [hartree]         -0.808164247182E+03  -0.808159986505E+03
 MD| Kinetic energy [hartree]            0.721318414184E+00   0.716906698141E+00
 MD| Temperature [K]                            1518.493788          1509.206401
 MD| ***************************************************************************

 Number of electrons:                                                        560
 Number of occupied orbitals:                                                300
 Number of molecular orbitals:                                               320

 Number of orbital functions:                                               1300
 Number of independent orbital functions:                                   1300

 Extrapolation method: PS Nth order
 Extrapolation order:  1


 SCF WAVEFUNCTION OPTIMIZATION

  Step     Update method      Time    Convergence         Total energy    Change
  ------------------------------------------------------------------------------
     1 Broy./Diag. 0.30E+00    2.5     0.01134030      -808.1779485277 -8.08E+02
     2 Broy./Diag. 0.30E+00    3.5     0.03865795      -808.1647474640  1.32E-02
     3 Broy./Diag. 0.30E+00    3.5     0.03307001      -808.2071737977 -4.24E-02
     4 Broy./Diag. 0.30E+00    3.6     0.00664043      -808.1756926651  3.15E-02
     5 Broy./Diag. 0.30E+00    3.7     0.00259466      -808.1777878330 -2.10E-03
     6 Broy./Diag. 0.30E+00    3.8     0.00108916      -808.1780025859 -2.15E-04
     7 Broy./Diag. 0.30E+00    3.7     0.00045429      -808.1778735847  1.29E-04
     8 Broy./Diag. 0.30E+00    3.7     0.00026675      -808.1777160397  1.58E-04
     9 Broy./Diag. 0.30E+00    3.9     0.00025250      -808.1777664696 -5.04E-05
    10 Broy./Diag. 0.30E+00    3.7     0.00030427      -808.1780466055 -2.80E-04
    11 Broy./Diag. 0.30E+00    3.7     0.00011472      -808.1778149542  2.32E-04
    12 Broy./Diag. 0.30E+00    3.6     0.00008585      -808.1778778617 -6.29E-05
    13 Broy./Diag. 0.30E+00    3.6     0.00006062      -808.1779240407 -4.62E-05
    14 Broy./Diag. 0.30E+00    3.6     0.00003518      -808.1779331441 -9.10E-06
    15 Broy./Diag. 0.30E+00    3.6     0.00001465      -808.1779397045 -6.56E-06
    16 Broy./Diag. 0.30E+00    3.6     0.00001196      -808.1779535169 -1.38E-05
    17 Broy./Diag. 0.30E+00    3.6     0.00001331      -808.1779633254 -9.81E-06
    18 Broy./Diag. 0.30E+00    3.6     0.00000963      -808.1779529158  1.04E-05
    19 Broy./Diag. 0.30E+00    3.6     0.00000258      -808.1779614859 -8.57E-06
    20 Broy./Diag. 0.30E+00    3.7     0.00000284      -808.1779607847  7.01E-07
    21 Broy./Diag. 0.30E+00    3.6     0.00000264      -808.1779591438  1.64E-06
    22 Broy./Diag. 0.30E+00    3.6     0.00000138      -808.1779592578 -1.14E-07
    23 Broy./Diag. 0.30E+00    3.6     0.00000246      -808.1779586525  6.05E-07
    24 Broy./Diag. 0.30E+00    3.6     0.00000181      -808.1779566349  2.02E-06
    25 Broy./Diag. 0.30E+00    3.7     0.00000043      -808.1779577919 -1.16E-06

  *** SCF run converged in    25 steps ***


  Electronic density on regular grids:       -559.9999999999        0.0000000001
  Core density on regular grids:              559.9999999987       -0.0000000013
  Total charge density on r-space grids:       -0.0000000012
  Total charge density g-space grids:          -0.0000000012

  Overlap energy of the core charge distribution:               0.01849376973941
  Self energy of the core charge distribution:              -1737.24439639931302
  Core Hamiltonian energy:                                    411.16740512851123
  Hartree energy:                                             709.04077770425238
  Exchange-correlation energy:                               -190.43569018256972
  Dispersion energy:                                           -0.71847906436594
  Electronic entropic energy:                                  -0.00606874820125
  Fermi energy:                                                 0.12574278639357

  Total energy:                                              -808.17795779191408

 ENERGY| Total FORCE_EVAL ( QS ) energy [hartree]           -808.177957319582674

 MD| ***************************************************************************
 MD| Step number                                                               3
 MD| Time [fs]                                                          0.300000
 MD| Conserved quantity [hartree]                            -0.807439426852E+03
 MD| ---------------------------------------------------------------------------
 MD|                                          Instantaneous             Averages
 MD| CPU time per MD step [s]                     96.114422           150.142867
 MD| Energy drift per atom [K]          -0.201830264901E-01  -0.101825718875E-01
 MD| Potential energy [hartree]         -0.808177957320E+03  -0.808165976776E+03
 MD| Kinetic energy [hartree]            0.734446759327E+00   0.722753385203E+00
 MD| Temperature [K]                            1546.131112          1521.514638
 MD| ***************************************************************************

 -------------------------------------------------------------------------------
 -                                                                             -
 -                                DBCSR STATISTICS                             -
 -                                                                             -
 -------------------------------------------------------------------------------
 COUNTER                                    TOTAL       BLAS       SMM       ACC
 flops    13 x    32 x    13           5408000000     100.0%      0.0%      0.0%     
 flops    13 x    13 x   320          67183584000     100.0%      0.0%      0.0%     
 flops inhomo. stacks                           0       0.0%      0.0%      0.0%
 flops total                        72.591584E+09     100.0%      0.0%      0.0%
 flops max/rank                     72.591584E+09     100.0%      0.0%      0.0%
 matmuls inhomo. stacks                         0       0.0%      0.0%      0.0%
 matmuls total                            1121150     100.0%      0.0%      0.0%
 number of processed stacks                  1730     100.0%      0.0%      0.0%
 average stack size                                   648.1       0.0       0.0
 marketing flops                   130.113004E+09
 -------------------------------------------------------------------------------
 # multiplications                            128
 max memory usage/rank               0.000000E+00
 # max total images/rank                        1
 # max 3D layers                                1
 # MPI messages exchanged                       0
 -------------------------------------------------------------------------------
 -                                                                             -
 -                      DBCSR MESSAGE PASSING PERFORMANCE                      -
 -                                                                             -
 -------------------------------------------------------------------------------
 ROUTINE             CALLS      AVE VOLUME [Bytes]
 MP_Bcast                3                     12.
 MP_Allreduce          894                      8.
 MP_Alltoall          3513                4755766.
 MP_ISend              512                  23516.
 MP_IRecv              512                  23516.
 -------------------------------------------------------------------------------

 -------------------------------------------------------------------------------
 -                                                                             -
 -                                DBM STATISTICS                               -
 -                                                                             -
 -------------------------------------------------------------------------------
    M  x    N  x    K                                          COUNT     PERCENT
 -------------------------------------------------------------------------------

 -------------------------------------------------------------------------------
 -                                                                             -
 -                                GRID STATISTICS                              -
 -                                                                             -
 -------------------------------------------------------------------------------
 LP    KERNEL             BACKEND                              COUNT     PERCENT
 4     collocate ortho    CPU                                7553189      50.00%
 4     integrate ortho    CPU                                7301416      48.33%
 5     integrate ortho    CPU                                 251773       1.67%
 0     collocate general  CPU                                    400       0.00%
 1     integrate general  CPU                                    400       0.00%
 -------------------------------------------------------------------------------

 MEMORY| Estimated peak process memory [MiB]                                   0

 -------------------------------------------------------------------------------
 -                                                                             -
 -                         MESSAGE PASSING PERFORMANCE                         -
 -                                                                             -
 -------------------------------------------------------------------------------

 ROUTINE             CALLS      AVE VOLUME [Bytes]
 MP_Group                4
 MP_Bcast              245                  10247.
 MP_Allreduce         1688                    450.
 MP_Sync               123
 MP_comm_split         119
 -------------------------------------------------------------------------------


 -------------------------------------------------------------------------------
 -                                                                             -
 -                           R E F E R E N C E S                               -
 -                                                                             -
 -------------------------------------------------------------------------------
 
 CP2K version 2025.1, the CP2K developers group (2025).
 CP2K is freely available from https://www.cp2k.org/ .
 
 T. D. Kuehne, M. Iannuzzi, M. Del Ben, V. V. Rybkin, P. Seewald, F. Stein, T. 
 Laino, R. Z. Khaliullin, O. Schuett, F. Schiffmann, D. Golze, J. Wilhelm, S. 
 Chulkov, M. H. Bani-Hashemian, V. Weber, U. Borstnik, M. Taillefumier, A. S. 
 Jakobovits, A. Lazzaro, H. Pabst, T. Mueller, R. Schade, M. Guidon, S. 
 Andermatt, N. Holmberg, G. K. Schenter, A. Hehn, A. Bussy, F. Belleflamme, G. 
 Tabacchi, A. Gloess, M. Lass, I. Bethune, C. J. Mundy, C. Plessl, M. Watkins, 
 J. VandeVondele, M. Krack, J. Hutter.
 J. Chem. Phys. 152, 194103 (2020).
 CP2K: An electronic structure and molecular dynamics software package - 
 Quickstep: Efficient and accurate electronic structure calculations.
 https://doi.org/10.1063/5.0007045

 L. Goerigk, A. Hansen, C. Bauer, S. Ehrlich, A. Najibi, S. Grimme.
 Phys. Chem. Chem. Phys. 19, 32184-32215 (2017).
 A look at the density functional theory zoo with the advanced GMTKN55 database 
 for general main group thermochemistry, kinetics and noncovalent interactions.
 https://doi.org/10.1039/C7CP04913G

 O. Schuett, P. Messmer, J. Hutter, J. VandeVondele.
 Electronic Structure Calculations on Graphics Processing Units, 173-190 (2016).
 GPU-Accelerated Sparse Matrix-Matrix Multiplication for Linear Scaling Density 
 Functional Theory.
 https://doi.org/10.1002/9781118670712.ch8

 J. Hutter, M. Iannuzzi, F. Schiffmann, J. VandeVondele.
 WIREs Comput Mol Sci. 4, 15-25 (2014).
 CP2K: atomistic simulations of condensed matter systems.
 https://doi.org/10.1002/wcms.1159

 U. Borstnik, J. VandeVondele, V. Weber, J. Hutter.
 Parallel Comput. 40, 47-58 (2014).
 Sparse matrix multiplication: The distributed block-compressed sparse row 
 library.
 https://doi.org/10.1016/j.parco.2014.03.012

 S. Grimme, S. Ehrlich, L. Goerigk.
 J. Comput. Chem. 32, 1456 (2011).
 Effect of the damping function in dispersion corrected density functional 
 theory.
 https://doi.org/10.1002/jcc.21759

 S. Grimme, J. Antony, S. Ehrlich, H. Krieg.
 J. Chem. Phys. 132, 154104 (2010).
 A consistent and accurate ab initio parametrization of density functional 
 dispersion correction (DFT-D) for the 94 elements H-Pu.
 https://doi.org/10.1063/1.3382344

 G. Bussi, D. Donadio, M. Parrinello.
 J. Chem. Phys. 126, 014101 (2007).
 Canonical sampling through velocity rescaling.
 https://doi.org/10.1063/1.2408420

 J. VandeVondele, J. Hutter.
 J. Chem. Phys. 127, 114105 (2007).
 Gaussian basis sets for accurate calculations on molecular systems in gas and 
 condensed phases.
 https://doi.org/10.1063/1.2770708

 J. VandeVondele, M. Krack, F. Mohamed, M. Parrinello, T. Chassaing, J. Hutter.
 Comput. Phys. Commun. 167, 103-128 (2005).
 QUICKSTEP: Fast and accurate density functional calculations using a mixed 
 Gaussian and plane waves approach.
 https://doi.org/10.1016/j.cpc.2004.12.014

 M. Krack.
 Theor. Chem. Acc. 114, 145-152 (2005).
 Pseudopotentials for H to Kr optimized for gradient-corrected 
 exchange-correlation functionals.
 https://doi.org/10.1007/s00214-005-0655-y

 M. Frigo, S. G. Johnson.
 Proc. IEEE 93, 216-231 (2005).
 The design and implementation of FFTW3.
 https://doi.org/10.1109/JPROC.2004.840301

 C. Hartwigsen, S. Goedecker, J. Hutter.
 Phys. Rev. B 58, 3641-3662 (1998).
 Relativistic separable dual-space Gaussian pseudopotentials from H to Rn.
 https://doi.org/10.1103/PhysRevB.58.3641

 G. Lippert, J. Hutter, M. Parrinello.
 Mol. Phys. 92, 477-487 (1997).
 A hybrid Gaussian and plane wave density functional scheme.
 https://doi.org/10.1080/002689797170220

 S. Goedecker, M. Teter, J. Hutter.
 Phys. Rev. B 54, 1703-1710 (1996).
 Separable dual-space Gaussian pseudopotentials.
 https://doi.org/10.1103/PhysRevB.54.1703

 J. P. Perdew, K. Burke, M. Ernzerhof.
 Phys. Rev. Lett. 77, 3865-3868 (1996).
 Generalized gradient approximation made simple.
 https://doi.org/10.1103/PhysRevLett.77.3865


 -------------------------------------------------------------------------------
 -                                                                             -
 -                                T I M I N G                                  -
 -                                                                             -
 -------------------------------------------------------------------------------
 SUBROUTINE                       CALLS  ASD         SELF TIME        TOTAL TIME
                                MAXIMUM       AVERAGE  MAXIMUM  AVERAGE  MAXIMUM
 CP2K                                 1  1.0    0.064    0.064  452.085  452.085
 qs_mol_dyn_low                       1  2.0    0.002    0.002  450.438  450.438
 qs_forces                            4  3.8    0.000    0.000  450.422  450.422
 qs_energies                          4  4.8    0.000    0.000  439.562  439.562
 scf_env_do_scf                       4  5.8    0.000    0.000  430.598  430.598
 scf_env_do_scf_inner_loop          116  6.6    0.010    0.010  430.597  430.597
 velocity_verlet                      3  3.0    0.000    0.000  281.313  281.313
 rebuild_ks_matrix                  120  8.5    0.000    0.000  222.777  222.777
 qs_ks_build_kohn_sham_matrix       120  9.5    0.011    0.011  222.777  222.777
 qs_ks_update_qs_env                116  7.6    0.001    0.001  214.221  214.221
 qs_vxc_create                      120 10.5    0.001    0.001  105.229  105.229
 xc_vxc_pw_create                   120 11.5    5.396    5.396  105.228  105.228
 fft_wrap_pw1pw2                   2156 12.6    0.029    0.029  105.205  105.205
 qs_rho_update_rho_low              120  7.7    0.001    0.001  101.911  101.911
 calculate_rho_elec                 120  8.7    4.729    4.729  101.911  101.911
 fft_wrap_pw1pw2_300               1436 13.9   12.574   12.574  101.743  101.743
 sum_up_and_integrate               120 10.5    0.002    0.002   97.667   97.667
 integrate_v_rspace                 120 11.5    0.042    0.042   97.343   97.343
 grid_integrate_task_list           120 12.5   86.272   86.272   86.272   86.272
 grid_collocate_task_list           120  9.7   77.251   77.251   77.251   77.251
 qs_scf_new_mos                     116  7.6    0.002    0.002   71.115   71.115
 eigensolver                        116  8.6    0.002    0.002   65.641   65.641
 xc_rho_set_and_dset_create         120 12.5    1.982    1.982   61.142   61.142
 fft3d_s                           2157 14.6   57.415   57.415   57.420   57.420
 cp_fm_syevd                        119  9.7    0.001    0.001   56.351   56.351
 xc_pw_derive                       720 13.5    0.007    0.007   56.260   56.260
 cp_fm_syevd_base                   119 10.7   55.142   55.142   55.142   55.142
 gspace_mixing                      112  7.6    4.374    4.374   46.585   46.585
 xc_pw_divergence                   120 12.5    0.004    0.004   38.105   38.105
 broyden_mixing                     112  8.6   34.402   34.402   34.405   34.405
 xc_functional_eval                 120 13.5    0.001    0.001   30.721   30.721
 pbe_lda_eval                       120 14.5   30.721   30.721   30.721   30.721
 pw_scatter_s                      1192 14.8   22.523   22.523   22.523   22.523
 density_rs2pw                      120  9.7    0.006    0.006   19.931   19.931
 potential_pw2rs                    120 12.5    0.142    0.142   11.028   11.028
 pw_poisson_solve                   120 10.5    0.003    0.003   10.379   10.379
 -------------------------------------------------------------------------------

 The number of warnings for this run is : 1
 
 -------------------------------------------------------------------------------
  **** **** ******  **  PROGRAM ENDED AT                 2025-10-02 13:26:49.547
 ***** ** ***  *** **   PROGRAM RAN ON                                       Mac
 **    ****   ******    PROGRAM RAN BY                               jdmusgraves
 ***** **    ** ** **   PROGRAM PROCESS ID                                 39506
  **** **  *******  **  PROGRAM STOPPED IN /Users/jdmusgraves/GitHub/local_shake
                                           down_kit
