 DBCSR| CPU Multiplication driver                                           BLAS (U)
 DBCSR| Multrec recursion limit                                              512 (U)
 DBCSR| Multiplication stack size                                           1000 (D)
 DBCSR| Maximum elements for images                                    UNLIMITED (U)
 DBCSR| Multiplicative factor virtual images                                   1 (U)
 DBCSR| Use multiplication densification                                       T (D)
 DBCSR| Multiplication size stacks                                             3 (U)
 DBCSR| Use memory pool for CPU allocation                                     F (U)
 DBCSR| Number of 3D layers                                               SINGLE (U)
 DBCSR| Use MPI memory allocation                                              F (U)
 DBCSR| Use RMA algorithm                                                      F (U)
 DBCSR| Use Communication thread                                               T (U)
 DBCSR| Communication thread load                                             87 (D)
 DBCSR| MPI: My process id                                                     0
 DBCSR| MPI: Number of processes                                               6
 DBCSR| OMP: Current number of threads                                         1
 DBCSR| OMP: Max number of threads                                             1
 DBCSR| Split modifier for TAS multiplication algorithm                  1.0E+00 (U)


  **** **** ******  **  PROGRAM STARTED AT               2025-10-02 13:47:56.533
 ***** ** ***  *** **   PROGRAM STARTED ON                                   Mac
 **    ****   ******    PROGRAM STARTED BY                           jdmusgraves
 ***** **    ** ** **   PROGRAM PROCESS ID                                 41421
  **** **  *******  **  PROGRAM STARTED IN /Users/jdmusgraves/GitHub/local_shake
                                           down_kit

 CP2K| version string:                                       CP2K version 2025.1
 CP2K| source code revision number:                                             
 CP2K| cp2kflags: omp libint fftw3 libxc parallel scalapack no_statm_access     
 CP2K| is freely available from                            https://www.cp2k.org/
 CP2K| Program compiled at                                   2025-01-01 12:26:53
 CP2K| Program compiled on                                                      
 CP2K| Program compiled for                                                arm64
 CP2K| Data directory path                         /opt/homebrew/share/cp2k/data
 CP2K| Input file name                                inputs/as40se60_phase1.inp

 GLOBAL| Force Environment number                                              1
 GLOBAL| Basis set file name                                        BASIS_MOLOPT
 GLOBAL| Potential file name                                      GTH_POTENTIALS
 GLOBAL| MM Potential file name                                     MM_POTENTIAL
 GLOBAL| Coordinate file name                       inputs/as40se60_100_seed.xyz
 GLOBAL| Method name                                                        CP2K
 GLOBAL| Project name                                            as40se60_phase1
 GLOBAL| Run type                                                             MD
 GLOBAL| FFT library                                                       FFTW3
 GLOBAL| Diagonalization library                                       ScaLAPACK
 GLOBAL| DGEMM library                                                      BLAS
 GLOBAL| Orthonormality check for eigenvectors                          DISABLED
 GLOBAL| Matrix multiplication library                                 ScaLAPACK
 GLOBAL| All-to-all communication in single precision                          F
 GLOBAL| FFTs using library dependent lengths                                  F
 GLOBAL| Grid backend                                                       AUTO
 GLOBAL| Global print level                                                  LOW
 GLOBAL| MPI I/O enabled                                                       T
 GLOBAL| Total number of message passing processes                             6
 GLOBAL| Number of threads for this process                                    1
 GLOBAL| This output is from process                                           0
 GLOBAL| OpenMP stack size per thread (OMP_STACKSIZE)                    default
 GLOBAL| CPU model name                                                  UNKNOWN
 GLOBAL| CPUID                                                              2000

 MEMORY| system memory details [Kb]
 MEMORY|                        rank 0           min           max       average
 MEMORY| MemTotal                    0             0             0             0
 MEMORY| MemFree                     0             0             0             0
 MEMORY| Buffers                     0             0             0             0
 MEMORY| Cached                      0             0             0             0
 MEMORY| Slab                        0             0             0             0
 MEMORY| SReclaimable                0             0             0             0
 MEMORY| MemLikelyFree               0             0             0             0


 GENERATE|  Preliminary Number of Bonds generated:                             0
 GENERATE|  Achieved consistency in connectivity generation.

 *******************************************************************************
 *******************************************************************************
 **                                                                           **
 **     #####                         ##              ##                      **
 **    ##   ##            ##          ##              ##                      **
 **   ##     ##                       ##            ######                    **
 **   ##     ##  ##   ##  ##   #####  ##  ##   ####   ##    #####    #####    **
 **   ##     ##  ##   ##  ##  ##      ## ##   ##      ##   ##   ##  ##   ##   **
 **   ##  ## ##  ##   ##  ##  ##      ####     ###    ##   ######   ######    **
 **    ##  ###   ##   ##  ##  ##      ## ##      ##   ##   ##       ##        **
 **     #######   #####   ##   #####  ##  ##  ####    ##    #####   ##        **
 **           ##                                                    ##        **
 **                                                                           **
 **                                                ... make the atoms dance   **
 **                                                                           **
 **            Copyright (C) by CP2K developers group (2000-2025)             **
 **                      J. Chem. Phys. 152, 194103 (2020)                    **
 **                                                                           **
 *******************************************************************************


 TOTAL NUMBERS AND MAXIMUM NUMBERS

  Total number of            - Atomic kinds:                                   2
                             - Atoms:                                        100
                             - Shell sets:                                   100
                             - Shells:                                       500
                             - Primitive Cartesian functions:                400
                             - Cartesian basis functions:                   1400
                             - Spherical basis functions:                   1300

  Maximum angular momentum of the orbital basis functions:                     2


 SCF PARAMETERS         Density guess:                                    ATOMIC
                        --------------------------------------------------------
                        max_scf:                                             200
                        max_scf_history:                                       0
                        max_diis:                                              4
                        --------------------------------------------------------
                        eps_scf:                                        1.00E-06
                        eps_scf_history:                                0.00E+00
                        eps_diis:                                       1.00E-01
                        eps_eigval:                                     1.00E-05
                        --------------------------------------------------------
                        level_shift [a.u.]:                             0.000000
                        added MOs                                        80    0
                        --------------------------------------------------------
                        Mixing method:                            BROYDEN_MIXING
                                                charge density mixing in g-space
                        --------------------------------------------------------
                        Smear method:                                FERMI_DIRAC
                        Electronic temperature [K]:                        500.0
                        Electronic temperature [a.u.]:                  1.58E-03
                        Accuracy threshold:                             1.00E-10
                        --------------------------------------------------------
                        No outer SCF

 MD_PAR| Molecular dynamics protocol (MD input parameters)
 MD_PAR| Ensemble type                                                       NVT
 MD_PAR| Number of time steps                                              20000
 MD_PAR| Time step [fs]                                                 0.050000
 MD_PAR| Temperature [K]                                             1500.000000
 MD_PAR| Temperature tolerance [K]                                      0.000000
 MD_PAR| Print MD information every                                    1 step(s)
 MD_PAR| File type   Print frequency [steps]                          File names
 MD_PAR| Coordinates        100 as40se60_phase1-as40se60_phase1-pos.xyz-pos-1.xy
 MD_PAR| Velocities         100 as40se60_phase1-as40se60_phase1-vel.xyz-vel-1.xy
 MD_PAR| Energies             1                           as40se60_phase1-1.ener
 MD_PAR| Dump               100 as40se60_phase1-as40se60_phase1.restart-1.restar

 ROT| Rotational analysis information
 ROT| Principal axes and moments of inertia [a.u.]
 ROT|                           1                   2                   3
 ROT| Eigenvalues      1.75789868623E+09   1.79391159273E+09   1.91255940231E+09
 ROT|      x             -0.210013670247      0.719449238534     -0.662032515426
 ROT|      y              0.775282068462      0.535099603628      0.335568366386
 ROT|      z             -0.595677742266      0.442787993706      0.670154325510
 ROT| Number of rotovibrational vectors                                        6

 DOF| Calculation of degrees of freedom
 DOF| Number of atoms                                                        100
 DOF| Number of intramolecular constraints                                     0
 DOF| Number of intermolecular constraints                                     0
 DOF| Invariants (translations + rotations)                                    0
 DOF| Degrees of freedom                                                     300

 DOF| Restraints information
 DOF| Number of intramolecular restraints                                      0
 DOF| Number of intermolecular restraints                                      0

 THERMOSTAT| Thermostat information for PARTICLES
 THERMOSTAT| Type of thermostat            Canonical Sampling/Velocity Rescaling
 THERMOSTAT| CSVR time constant [fs]                                    5.000000
 THERMOSTAT| Initial kinetic energy                           0.000000000000E+00
 THERMOSTAT| End of thermostat information for PARTICLES

 MD_VEL| Velocities initialization
 MD_VEL| Initial temperature [K]                                     1500.000000
 MD_VEL| COM velocity            -0.0000000000    -0.0000000000    -0.0000000000

 Number of electrons:                                                        560
 Number of occupied orbitals:                                                280
 Number of molecular orbitals:                                               360

 Number of orbital functions:                                               1300
 Number of independent orbital functions:                                   1300

 Extrapolation method: initial_guess


 SCF WAVEFUNCTION OPTIMIZATION

  Step     Update method      Time    Convergence         Total energy    Change
  ------------------------------------------------------------------------------
     1 NoMix/Diag. 0.30E+00    2.4     0.71042603      -823.7693830616 -8.24E+02
     2 Broy./Diag. 0.30E+00    3.3     0.83812231      -807.3005041468  1.65E+01
     3 Broy./Diag. 0.30E+00    3.3     0.55688296      -807.5488141839 -2.48E-01
     4 Broy./Diag. 0.30E+00    3.4     0.41391051      -808.0654680884 -5.17E-01
     5 Broy./Diag. 0.30E+00    3.3     0.59549173      -808.5427437417 -4.77E-01
     6 Broy./Diag. 0.30E+00    3.3     0.39182060      -808.1753391577  3.67E-01
     7 Broy./Diag. 0.30E+00    3.3     0.13881469      -808.4914756746 -3.16E-01
     8 Broy./Diag. 0.30E+00    3.5     0.05348441      -808.3527449120  1.39E-01
     9 Broy./Diag. 0.30E+00    3.3     0.03724957      -808.2774526702  7.53E-02
    10 Broy./Diag. 0.30E+00    3.3     0.01390690      -808.2300766083  4.74E-02
    11 Broy./Diag. 0.30E+00    3.2     0.01462333      -808.1870870555  4.30E-02
    12 Broy./Diag. 0.30E+00    3.2     0.01213258      -808.1626928530  2.44E-02
    13 Broy./Diag. 0.30E+00    3.2     0.00921444      -808.1602640244  2.43E-03
    14 Broy./Diag. 0.30E+00    3.2     0.00550865      -808.1467876555  1.35E-02
    15 Broy./Diag. 0.30E+00    3.2     0.00342555      -808.1484235929 -1.64E-03
    16 Broy./Diag. 0.30E+00    3.2     0.00280095      -808.1498636000 -1.44E-03
    17 Broy./Diag. 0.30E+00    3.2     0.00122534      -808.1505262445 -6.63E-04
    18 Broy./Diag. 0.30E+00    3.2     0.00154113      -808.1522826444 -1.76E-03
    19 Broy./Diag. 0.30E+00    3.2     0.00124709      -808.1548445031 -2.56E-03
    20 Broy./Diag. 0.30E+00    3.2     0.00054872      -808.1551283303 -2.84E-04
    21 Broy./Diag. 0.30E+00    3.2     0.00027859      -808.1564174077 -1.29E-03
    22 Broy./Diag. 0.30E+00    3.2     0.00041813      -808.1569970483 -5.80E-04
    23 Broy./Diag. 0.30E+00    3.2     0.00028277      -808.1572052894 -2.08E-04
    24 Broy./Diag. 0.30E+00    3.2     0.00020079      -808.1573595747 -1.54E-04
    25 Broy./Diag. 0.30E+00    3.2     0.00015276      -808.1574690041 -1.09E-04
    26 Broy./Diag. 0.30E+00    3.2     0.00009658      -808.1573059435  1.63E-04
    27 Broy./Diag. 0.30E+00    3.2     0.00004190      -808.1573107979 -4.85E-06
    28 Broy./Diag. 0.30E+00    3.2     0.00005966      -808.1572552270  5.56E-05
    29 Broy./Diag. 0.30E+00    3.2     0.00004863      -808.1571741613  8.11E-05
    30 Broy./Diag. 0.30E+00    3.2     0.00003670      -808.1571296145  4.45E-05
    31 Broy./Diag. 0.30E+00    3.2     0.00003134      -808.1571214453  8.17E-06
    32 Broy./Diag. 0.30E+00    3.2     0.00001531      -808.1570779648  4.35E-05
    33 Broy./Diag. 0.30E+00    3.2     0.00000511      -808.1570776742  2.91E-07
    34 Broy./Diag. 0.30E+00    3.2     0.00000993      -808.1570754989  2.18E-06
    35 Broy./Diag. 0.30E+00    3.2     0.00001149      -808.1570693748  6.12E-06
    36 Broy./Diag. 0.30E+00    3.2     0.00000497      -808.1570748592 -5.48E-06
    37 Broy./Diag. 0.30E+00    3.2     0.00000542      -808.1570794229 -4.56E-06
    38 Broy./Diag. 0.30E+00    3.3     0.00000355      -808.1570782237  1.20E-06
    39 Broy./Diag. 0.30E+00    3.2     0.00000110      -808.1570851600 -6.94E-06
    40 Broy./Diag. 0.30E+00    3.2     0.00000151      -808.1570871529 -1.99E-06
    41 Broy./Diag. 0.30E+00    3.3     0.00000192      -808.1570873056 -1.53E-07
    42 Broy./Diag. 0.30E+00    3.2     0.00000085      -808.1570885541 -1.25E-06

  *** SCF run converged in    42 steps ***


  Electronic density on regular grids:       -559.9999999999        0.0000000001
  Core density on regular grids:              559.9999999987       -0.0000000013
  Total charge density on r-space grids:       -0.0000000012
  Total charge density g-space grids:          -0.0000000012

  Overlap energy of the core charge distribution:               0.01878804220932
  Self energy of the core charge distribution:              -1737.24439639931302
  Core Hamiltonian energy:                                    411.19662094041951
  Hartree energy:                                             709.04251678671699
  Exchange-correlation energy:                               -190.43663411859984
  Dispersion energy:                                           -0.71845137320992
  Electronic entropic energy:                                  -0.01553243362936
  Fermi energy:                                                 0.12579548871975

  Total energy:                                              -808.15708855414618

 ENERGY| Total FORCE_EVAL ( QS ) energy [hartree]           -808.157087851854840

 MD_INI| MD initialization
 MD_INI| Potential energy [hartree]                          -0.808157087852E+03
 MD_INI| Kinetic energy [hartree]                             0.712533452240E+00
 MD_INI| Temperature [K]                                             1500.000000
 MD_INI| Cell volume [bohr^3]                                 1.884311149060E+04
 MD_INI| Cell volume [ang^3]                                  2.792261002858E+03
 MD_INI| Cell lengths [bohr]      2.66103675E+01  2.66103675E+01  2.66103675E+01
 MD_INI| Cell lengths [ang]       1.40816000E+01  1.40816000E+01  1.40816000E+01
 MD_INI| Cell angles [deg]        9.00000000E+01  9.00000000E+01  9.00000000E+01

 Number of electrons:                                                        560
 Number of occupied orbitals:                                                311
 Number of molecular orbitals:                                               360

 Number of orbital functions:                                               1300
 Number of independent orbital functions:                                   1300

 Extrapolation method: PS Nth order
 Extrapolation order:  0


 SCF WAVEFUNCTION OPTIMIZATION

  Step     Update method      Time    Convergence         Total energy    Change
  ------------------------------------------------------------------------------
     1 Broy./Diag. 0.30E+00    2.2     0.00154069      -808.1582819921 -8.08E+02
     2 Broy./Diag. 0.30E+00    3.2     0.00313269      -808.1574387124  8.43E-04
     3 Broy./Diag. 0.30E+00    3.2     0.00335126      -808.1602065089 -2.77E-03
     4 Broy./Diag. 0.30E+00    3.2     0.00156098      -808.1574351813  2.77E-03
     5 Broy./Diag. 0.30E+00    3.2     0.00053055      -808.1584206294 -9.85E-04
     6 Broy./Diag. 0.30E+00    3.2     0.00027099      -808.1583018989  1.19E-04
     7 Broy./Diag. 0.30E+00    3.2     0.00016695      -808.1582692800  3.26E-05
     8 Broy./Diag. 0.30E+00    3.2     0.00010621      -808.1582879332 -1.87E-05
     9 Broy./Diag. 0.30E+00    3.2     0.00004489      -808.1582823764  5.56E-06
    10 Broy./Diag. 0.30E+00    3.2     0.00005620      -808.1582721202  1.03E-05
    11 Broy./Diag. 0.30E+00    3.2     0.00003765      -808.1583000570 -2.79E-05
    12 Broy./Diag. 0.30E+00    3.3     0.00001071      -808.1582772466  2.28E-05
    13 Broy./Diag. 0.30E+00    3.2     0.00000357      -808.1582872071 -9.96E-06
    14 Broy./Diag. 0.30E+00    3.3     0.00000489      -808.1582853445  1.86E-06
    15 Broy./Diag. 0.30E+00    3.2     0.00000363      -808.1582871645 -1.82E-06
    16 Broy./Diag. 0.30E+00    3.2     0.00000260      -808.1582873620 -1.98E-07
    17 Broy./Diag. 0.30E+00    3.2     0.00000268      -808.1582881646 -8.03E-07
    18 Broy./Diag. 0.30E+00    3.3     0.00000158      -808.1582867435  1.42E-06
    19 Broy./Diag. 0.30E+00    3.2     0.00000053      -808.1582881948 -1.45E-06

  *** SCF run converged in    19 steps ***


  Electronic density on regular grids:       -559.9999999999        0.0000000001
  Core density on regular grids:              559.9999999987       -0.0000000013
  Total charge density on r-space grids:       -0.0000000012
  Total charge density g-space grids:          -0.0000000012

  Overlap energy of the core charge distribution:               0.01876874062128
  Self energy of the core charge distribution:              -1737.24439639931302
  Core Hamiltonian energy:                                    411.19688174037316
  Hartree energy:                                             709.04138640475981
  Exchange-correlation energy:                               -190.43694415873657
  Dispersion energy:                                           -0.71845605208846
  Electronic entropic energy:                                  -0.01552847025048
  Fermi energy:                                                 0.12579520265150

  Total energy:                                              -808.15828819478111

 ENERGY| Total FORCE_EVAL ( QS ) energy [hartree]           -808.158287484653783

 MD| ***************************************************************************
 MD| Step number                                                               1
 MD| Time [fs]                                                          0.050000
 MD| Conserved quantity [hartree]                            -0.807444554513E+03
 MD| ---------------------------------------------------------------------------
 MD|                                          Instantaneous             Averages
 MD| CPU time per MD step [s]                    206.368277           206.368277
 MD| Energy drift per atom [K]          -0.357491820752E-03   0.000000000000E+00
 MD| Potential energy [hartree]         -0.808158287485E+03  -0.808158287485E+03
 MD| Kinetic energy [hartree]            0.707245081970E+00   0.707245081970E+00
 MD| Temperature [K]                            1488.867112          1488.867112
 MD| ***************************************************************************

 Number of electrons:                                                        560
 Number of occupied orbitals:                                                311
 Number of molecular orbitals:                                               360

 Number of orbital functions:                                               1300
 Number of independent orbital functions:                                   1300

 Extrapolation method: PS Nth order
 Extrapolation order:  1


 SCF WAVEFUNCTION OPTIMIZATION

  Step     Update method      Time    Convergence         Total energy    Change
  ------------------------------------------------------------------------------
     1 Broy./Diag. 0.30E+00    2.1     0.00282489      -808.1603738459 -8.08E+02
     2 Broy./Diag. 0.30E+00    3.1     0.00850501      -808.1578176595  2.56E-03
     3 Broy./Diag. 0.30E+00    3.3     0.00780362      -808.1656496402 -7.83E-03
     4 Broy./Diag. 0.30E+00    3.2     0.00223842      -808.1591288408  6.52E-03
     5 Broy./Diag. 0.30E+00    3.2     0.00058616      -808.1602775553 -1.15E-03
     6 Broy./Diag. 0.30E+00    3.2     0.00046267      -808.1604409178 -1.63E-04
     7 Broy./Diag. 0.30E+00    3.2     0.00027184      -808.1603106255  1.30E-04
     8 Broy./Diag. 0.30E+00    3.2     0.00011264      -808.1603204500 -9.82E-06
     9 Broy./Diag. 0.30E+00    3.2     0.00003462      -808.1603445910 -2.41E-05
    10 Broy./Diag. 0.30E+00    3.2     0.00003632      -808.1603729976 -2.84E-05
    11 Broy./Diag. 0.30E+00    3.3     0.00004153      -808.1603362666  3.67E-05
    12 Broy./Diag. 0.30E+00    3.2     0.00001923      -808.1603788070 -4.25E-05
    13 Broy./Diag. 0.30E+00    3.3     0.00000614      -808.1603706141  8.19E-06
    14 Broy./Diag. 0.30E+00    3.4     0.00000319      -808.1603738479 -3.23E-06
    15 Broy./Diag. 0.30E+00    3.2     0.00000344      -808.1603774169 -3.57E-06
    16 Broy./Diag. 0.30E+00    3.3     0.00000313      -808.1603784483 -1.03E-06
    17 Broy./Diag. 0.30E+00    3.2     0.00000331      -808.1603764005  2.05E-06
    18 Broy./Diag. 0.30E+00    3.3     0.00000208      -808.1603791825 -2.78E-06
    19 Broy./Diag. 0.30E+00    3.2     0.00000101      -808.1603776604  1.52E-06
    20 Broy./Diag. 0.30E+00    3.3     0.00000037      -808.1603779570 -2.97E-07

  *** SCF run converged in    20 steps ***


  Electronic density on regular grids:       -559.9999999999        0.0000000001
  Core density on regular grids:              559.9999999987       -0.0000000013
  Total charge density on r-space grids:       -0.0000000012
  Total charge density g-space grids:          -0.0000000012

  Overlap energy of the core charge distribution:               0.01874180581738
  Self energy of the core charge distribution:              -1737.24439639931302
  Core Hamiltonian energy:                                    411.19609420135441
  Hartree energy:                                             709.04027717830604
  Exchange-correlation energy:                               -190.43710988002135
  Dispersion energy:                                           -0.71846059867698
  Electronic entropic energy:                                  -0.01552426397865
  Fermi energy:                                                 0.12579507463815

  Total energy:                                              -808.16037795700197

 ENERGY| Total FORCE_EVAL ( QS ) energy [hartree]           -808.160377515787218

 MD| ***************************************************************************
 MD| Step number                                                               2
 MD| Time [fs]                                                          0.100000
 MD| Conserved quantity [hartree]                            -0.807444554669E+03
 MD| ---------------------------------------------------------------------------
 MD|                                          Instantaneous             Averages
 MD| CPU time per MD step [s]                     69.030078           137.699178
 MD| Energy drift per atom [K]          -0.850774637991E-03  -0.425387318996E-03
 MD| Potential energy [hartree]         -0.808160377516E+03  -0.808159332500E+03
 MD| Kinetic energy [hartree]            0.710372757239E+00   0.708808919604E+00
 MD| Temperature [K]                            1495.451382          1492.159247
 MD| ***************************************************************************

 Number of electrons:                                                        560
 Number of occupied orbitals:                                                311
 Number of molecular orbitals:                                               360

 Number of orbital functions:                                               1300
 Number of independent orbital functions:                                   1300

 Extrapolation method: PS Nth order
 Extrapolation order:  1


 SCF WAVEFUNCTION OPTIMIZATION

  Step     Update method      Time    Convergence         Total energy    Change
  ------------------------------------------------------------------------------
     1 Broy./Diag. 0.30E+00    2.2     0.00287146      -808.1638675261 -8.08E+02
     2 Broy./Diag. 0.30E+00    3.2     0.00823768      -808.1615679536  2.30E-03
     3 Broy./Diag. 0.30E+00    3.2     0.00769182      -808.1691626891 -7.59E-03
     4 Broy./Diag. 0.30E+00    3.2     0.00232520      -808.1626413228  6.52E-03
     5 Broy./Diag. 0.30E+00    3.2     0.00057715      -808.1638495816 -1.21E-03
     6 Broy./Diag. 0.30E+00    3.3     0.00046642      -808.1639610999 -1.12E-04
     7 Broy./Diag. 0.30E+00    3.2     0.00027740      -808.1638101487  1.51E-04
     8 Broy./Diag. 0.30E+00    3.2     0.00011413      -808.1638135520 -3.40E-06
     9 Broy./Diag. 0.30E+00    3.3     0.00003660      -808.1638354390 -2.19E-05
    10 Broy./Diag. 0.30E+00    3.2     0.00003901      -808.1638639525 -2.85E-05
    11 Broy./Diag. 0.30E+00    3.3     0.00004309      -808.1638258026  3.81E-05
    12 Broy./Diag. 0.30E+00    3.2     0.00001914      -808.1638699993 -4.42E-05
    13 Broy./Diag. 0.30E+00    3.2     0.00000614      -808.1638631659  6.83E-06
    14 Broy./Diag. 0.30E+00    3.3     0.00000324      -808.1638666650 -3.50E-06
    15 Broy./Diag. 0.30E+00    3.3     0.00000355      -808.1638708115 -4.15E-06
    16 Broy./Diag. 0.30E+00    3.2     0.00000344      -808.1638720776 -1.27E-06
    17 Broy./Diag. 0.30E+00    3.2     0.00000349      -808.1638699984  2.08E-06
    18 Broy./Diag. 0.30E+00    3.3     0.00000206      -808.1638729677 -2.97E-06
    19 Broy./Diag. 0.30E+00    3.3     0.00000096      -808.1638714595  1.51E-06

  *** SCF run converged in    19 steps ***


  Electronic density on regular grids:       -559.9999999999        0.0000000001
  Core density on regular grids:              559.9999999987       -0.0000000013
  Total charge density on r-space grids:       -0.0000000012
  Total charge density g-space grids:          -0.0000000012

  Overlap energy of the core charge distribution:               0.01870023044760
  Self energy of the core charge distribution:              -1737.24439639931302
  Core Hamiltonian energy:                                    411.19384878527319
  Hartree energy:                                             709.03906629154324
  Exchange-correlation energy:                               -190.43710523660360
  Dispersion energy:                                           -0.71846490426220
  Electronic entropic energy:                                  -0.01552022680736
  Fermi energy:                                                 0.12579501845226

  Total energy:                                              -808.16387145946499

 ENERGY| Total FORCE_EVAL ( QS ) energy [hartree]           -808.163871188201142

 MD| ***************************************************************************
 MD| Step number                                                               3
 MD| Time [fs]                                                          0.150000
 MD| Conserved quantity [hartree]                            -0.807444554893E+03
 MD| ---------------------------------------------------------------------------
 MD|                                          Instantaneous             Averages
 MD| CPU time per MD step [s]                     65.779083           113.725813
 MD| Energy drift per atom [K]          -0.155783384127E-02  -0.802869493087E-03
 MD| Potential energy [hartree]         -0.808163871188E+03  -0.808160845396E+03
 MD| Kinetic energy [hartree]            0.712918551251E+00   0.710178796820E+00
 MD| Temperature [K]                            1500.810697          1495.043063
 MD| ***************************************************************************

 Number of electrons:                                                        560
 Number of occupied orbitals:                                                311
 Number of molecular orbitals:                                               360

 Number of orbital functions:                                               1300
 Number of independent orbital functions:                                   1300

 Extrapolation method: PS Nth order
 Extrapolation order:  1


 SCF WAVEFUNCTION OPTIMIZATION

  Step     Update method      Time    Convergence         Total energy    Change
  ------------------------------------------------------------------------------
     1 Broy./Diag. 0.30E+00    2.2     0.00283495      -808.1686846562 -8.08E+02
     2 Broy./Diag. 0.30E+00    3.3     0.00779092      -808.1667205474  1.96E-03
     3 Broy./Diag. 0.30E+00    3.2     0.00748191      -808.1739091652 -7.19E-03
     4 Broy./Diag. 0.30E+00    3.2     0.00244610      -808.1674236267  6.49E-03
     5 Broy./Diag. 0.30E+00    3.2     0.00060374      -808.1687330381 -1.31E-03
     6 Broy./Diag. 0.30E+00    3.3     0.00048460      -808.1687975029 -6.45E-05
     7 Broy./Diag. 0.30E+00    3.3     0.00027615      -808.1686300203  1.67E-04
     8 Broy./Diag. 0.30E+00    3.3     0.00010806      -808.1686237446  6.28E-06
     9 Broy./Diag. 0.30E+00    3.3     0.00003777      -808.1686500212 -2.63E-05
    10 Broy./Diag. 0.30E+00    3.3     0.00003811      -808.1686771524 -2.71E-05
    11 Broy./Diag. 0.30E+00    3.3     0.00004270      -808.1686406703  3.65E-05
    12 Broy./Diag. 0.30E+00    3.3     0.00001929      -808.1686865094 -4.58E-05
    13 Broy./Diag. 0.30E+00    3.3     0.00000642      -808.1686795589  6.95E-06
    14 Broy./Diag. 0.30E+00    3.3     0.00000352      -808.1686837197 -4.16E-06
    15 Broy./Diag. 0.30E+00    3.3     0.00000359      -808.1686880114 -4.29E-06
    16 Broy./Diag. 0.30E+00    3.3     0.00000359      -808.1686893214 -1.31E-06
    17 Broy./Diag. 0.30E+00    3.3     0.00000354      -808.1686872292  2.09E-06
    18 Broy./Diag. 0.30E+00    3.3     0.00000209      -808.1686902325 -3.00E-06
    19 Broy./Diag. 0.30E+00    3.3     0.00000099      -808.1686886192  1.61E-06

  *** SCF run converged in    19 steps ***


  Electronic density on regular grids:       -559.9999999999        0.0000000001
  Core density on regular grids:              559.9999999987       -0.0000000013
  Total charge density on r-space grids:       -0.0000000012
  Total charge density g-space grids:          -0.0000000012

  Overlap energy of the core charge distribution:               0.01864784400493
  Self energy of the core charge distribution:              -1737.24439639931302
  Core Hamiltonian energy:                                    411.18993905625246
  Hartree energy:                                             709.03796002247179
  Exchange-correlation energy:                               -190.43685390098335
  Dispersion energy:                                           -0.71846905108141
  Electronic entropic energy:                                  -0.01551619067918
  Fermi energy:                                                 0.12579520381673

  Total energy:                                              -808.16868861919284

 ENERGY| Total FORCE_EVAL ( QS ) energy [hartree]           -808.168688331613566

 MD| ***************************************************************************
 MD| Step number                                                               4
 MD| Time [fs]                                                          0.200000
 MD| Conserved quantity [hartree]                            -0.807444555176E+03
 MD| ---------------------------------------------------------------------------
 MD|                                          Instantaneous             Averages
 MD| CPU time per MD step [s]                     66.122014           101.824863
 MD| Energy drift per atom [K]          -0.245229556185E-02  -0.121522601028E-02
 MD| Potential energy [hartree]         -0.808168688332E+03  -0.808162806130E+03
 MD| Kinetic energy [hartree]            0.714717073132E+00   0.711313365898E+00
 MD| Temperature [K]                            1504.596881          1497.431518
 MD| ***************************************************************************

 Number of electrons:                                                        560
 Number of occupied orbitals:                                                311
 Number of molecular orbitals:                                               360

 Number of orbital functions:                                               1300
 Number of independent orbital functions:                                   1300

 Extrapolation method: PS Nth order
 Extrapolation order:  1


 SCF WAVEFUNCTION OPTIMIZATION

  Step     Update method      Time    Convergence         Total energy    Change
  ------------------------------------------------------------------------------
     1 Broy./Diag. 0.30E+00    2.2     0.00275607      -808.1750139445 -8.08E+02
     2 Broy./Diag. 0.30E+00    3.2     0.00767587      -808.1733547206  1.66E-03
     3 Broy./Diag. 0.30E+00    3.2     0.00741159      -808.1803874346 -7.03E-03
     4 Broy./Diag. 0.30E+00    3.2     0.00246820      -808.1738669322  6.52E-03
     5 Broy./Diag. 0.30E+00    3.2     0.00063667      -808.1751557889 -1.29E-03
     6 Broy./Diag. 0.30E+00    3.3     0.00049756      -808.1751723135 -1.65E-05
     7 Broy./Diag. 0.30E+00    3.3     0.00027257      -808.1749723109  2.00E-04
     8 Broy./Diag. 0.30E+00    3.2     0.00010386      -808.1749481625  2.41E-05
     9 Broy./Diag. 0.30E+00    3.2     0.00003816      -808.1749749439 -2.68E-05
    10 Broy./Diag. 0.30E+00    3.3     0.00003843      -808.1750013964 -2.65E-05
    11 Broy./Diag. 0.30E+00    3.3     0.00004193      -808.1749660676  3.53E-05
    12 Broy./Diag. 0.30E+00    3.2     0.00001876      -808.1750134241 -4.74E-05
    13 Broy./Diag. 0.30E+00    3.2     0.00000639      -808.1750071804  6.24E-06
    14 Broy./Diag. 0.30E+00    3.2     0.00000373      -808.1750123176 -5.14E-06
    15 Broy./Diag. 0.30E+00    3.2     0.00000352      -808.1750171016 -4.78E-06
    16 Broy./Diag. 0.30E+00    3.3     0.00000371      -808.1750186973 -1.60E-06
    17 Broy./Diag. 0.30E+00    3.3     0.00000357      -808.1750166541  2.04E-06
    18 Broy./Diag. 0.30E+00    3.2     0.00000208      -808.1750197133 -3.06E-06
    19 Broy./Diag. 0.30E+00    3.2     0.00000100      -808.1750180775  1.64E-06

  *** SCF run converged in    19 steps ***


  Electronic density on regular grids:       -559.9999999999        0.0000000001
  Core density on regular grids:              559.9999999987       -0.0000000013
  Total charge density on r-space grids:       -0.0000000012
  Total charge density g-space grids:          -0.0000000012

  Overlap energy of the core charge distribution:               0.01858116595211
  Self energy of the core charge distribution:              -1737.24439639931302
  Core Hamiltonian energy:                                    411.18416798814030
  Hartree energy:                                             709.03693078772744
  Exchange-correlation energy:                               -190.43631624230159
  Dispersion energy:                                           -0.71847310350364
  Electronic entropic energy:                                  -0.01551227425746
  Fermi energy:                                                 0.12579521620850

  Total energy:                                              -808.17501807749045

 ENERGY| Total FORCE_EVAL ( QS ) energy [hartree]           -808.175017723610722

 MD| ***************************************************************************
 MD| Step number                                                               5
 MD| Time [fs]                                                          0.250000
 MD| Conserved quantity [hartree]                            -0.807444555545E+03
 MD| ---------------------------------------------------------------------------
 MD|                                          Instantaneous             Averages
 MD| CPU time per MD step [s]                     65.782604            94.616411
 MD| Energy drift per atom [K]          -0.361763349277E-02  -0.169570750678E-02
 MD| Potential energy [hartree]         -0.808175017724E+03  -0.808165248449E+03
 MD| Kinetic energy [hartree]            0.722629949330E+00   0.713576682584E+00
 MD| Temperature [K]                            1521.254785          1502.196171
 MD| ***************************************************************************

 Number of electrons:                                                        560
 Number of occupied orbitals:                                                311
 Number of molecular orbitals:                                               360

 Number of orbital functions:                                               1300
 Number of independent orbital functions:                                   1300

 Extrapolation method: PS Nth order
 Extrapolation order:  1


 SCF WAVEFUNCTION OPTIMIZATION

  Step     Update method      Time    Convergence         Total energy    Change
  ------------------------------------------------------------------------------
     1 Broy./Diag. 0.30E+00    2.1     0.00284655      -808.1824726894 -8.08E+02
     2 Broy./Diag. 0.30E+00    3.2     0.00802090      -808.1807685626  1.70E-03
     3 Broy./Diag. 0.30E+00    3.2     0.00772641      -808.1881095606 -7.34E-03
     4 Broy./Diag. 0.30E+00    3.2     0.00251812      -808.1813533446  6.76E-03
     5 Broy./Diag. 0.30E+00    3.2     0.00062412      -808.1826211784 -1.27E-03
     6 Broy./Diag. 0.30E+00    3.2     0.00050207      -808.1826436216 -2.24E-05
     7 Broy./Diag. 0.30E+00    3.3     0.00028417      -808.1824248575  2.19E-04
     8 Broy./Diag. 0.30E+00    3.3     0.00010804      -808.1824027286  2.21E-05
     9 Broy./Diag. 0.30E+00    3.2     0.00003742      -808.1824292717 -2.65E-05
    10 Broy./Diag. 0.30E+00    3.2     0.00004138      -808.1824572608 -2.80E-05
    11 Broy./Diag. 0.30E+00    3.2     0.00004437      -808.1824213884  3.59E-05
    12 Broy./Diag. 0.30E+00    3.2     0.00001889      -808.1824703088 -4.89E-05
    13 Broy./Diag. 0.30E+00    3.2     0.00000617      -808.1824650821  5.23E-06
    14 Broy./Diag. 0.30E+00    3.2     0.00000390      -808.1824705549 -5.47E-06
    15 Broy./Diag. 0.30E+00    3.2     0.00000333      -808.1824757823 -5.23E-06
    16 Broy./Diag. 0.30E+00    3.2     0.00000365      -808.1824773198 -1.54E-06
    17 Broy./Diag. 0.30E+00    3.2     0.00000374      -808.1824753379  1.98E-06
    18 Broy./Diag. 0.30E+00    3.2     0.00000215      -808.1824785084 -3.17E-06
    19 Broy./Diag. 0.30E+00    3.2     0.00000103      -808.1824768830  1.63E-06
    20 Broy./Diag. 0.30E+00    3.2     0.00000042      -808.1824771547 -2.72E-07

  *** SCF run converged in    20 steps ***


  Electronic density on regular grids:       -559.9999999999        0.0000000001
  Core density on regular grids:              559.9999999987       -0.0000000013
  Total charge density on r-space grids:       -0.0000000012
  Total charge density g-space grids:          -0.0000000012

  Overlap energy of the core charge distribution:               0.01850456950339
  Self energy of the core charge distribution:              -1737.24439639931302
  Core Hamiltonian energy:                                    411.17715656040241
  Hartree energy:                                             709.03586982502691
  Exchange-correlation energy:                               -190.43562667671813
  Dispersion energy:                                           -0.71847710254914
  Electronic entropic energy:                                  -0.01550793072638
  Fermi energy:                                                 0.12579496419150

  Total energy:                                              -808.18247715466657

 ENERGY| Total FORCE_EVAL ( QS ) energy [hartree]           -808.182476485564848

 MD| ***************************************************************************
 MD| Step number                                                               6
 MD| Time [fs]                                                          0.300000
 MD| Conserved quantity [hartree]                            -0.807444555957E+03
 MD| ---------------------------------------------------------------------------
 MD|                                          Instantaneous             Averages
 MD| CPU time per MD step [s]                     68.492302            90.262393
 MD| Energy drift per atom [K]          -0.491889596604E-02  -0.223290558332E-02
 MD| Potential energy [hartree]         -0.808182476486E+03  -0.808168119788E+03
 MD| Kinetic energy [hartree]            0.741790852054E+00   0.718279044163E+00
 MD| Temperature [K]                            1561.591634          1512.095415
 MD| ***************************************************************************

 Number of electrons:                                                        560
 Number of occupied orbitals:                                                311
 Number of molecular orbitals:                                               360

 Number of orbital functions:                                               1300
 Number of independent orbital functions:                                   1300

 Extrapolation method: PS Nth order
 Extrapolation order:  1


 SCF WAVEFUNCTION OPTIMIZATION

  Step     Update method      Time    Convergence         Total energy    Change
  ------------------------------------------------------------------------------
     1 Broy./Diag. 0.30E+00    2.1     0.00294351      -808.1914515016 -8.08E+02
     2 Broy./Diag. 0.30E+00    3.1     0.00787130      -808.1900844406  1.37E-03
     3 Broy./Diag. 0.30E+00    3.2     0.00771717      -808.1972917839 -7.21E-03
     4 Broy./Diag. 0.30E+00    3.2     0.00259904      -808.1904283571  6.86E-03
     5 Broy./Diag. 0.30E+00    3.3     0.00060554      -808.1916934018 -1.27E-03
     6 Broy./Diag. 0.30E+00    3.2     0.00051312      -808.1916698721  2.35E-05
     7 Broy./Diag. 0.30E+00    3.3     0.00029721      -808.1914119563  2.58E-04
     8 Broy./Diag. 0.30E+00    3.3     0.00011089      -808.1913804057  3.16E-05
     9 Broy./Diag. 0.30E+00    3.3     0.00003533      -808.1914043374 -2.39E-05
    10 Broy./Diag. 0.30E+00    3.2     0.00004096      -808.1914302389 -2.59E-05
    11 Broy./Diag. 0.30E+00    3.2     0.00004466      -808.1913963299  3.39E-05
    12 Broy./Diag. 0.30E+00    3.2     0.00001894      -808.1914468215 -5.05E-05
    13 Broy./Diag. 0.30E+00    3.2     0.00000618      -808.1914416461  5.18E-06
    14 Broy./Diag. 0.30E+00    3.2     0.00000423      -808.1914486870 -7.04E-06
    15 Broy./Diag. 0.30E+00    3.2     0.00000265      -808.1914542005 -5.51E-06
    16 Broy./Diag. 0.30E+00    3.2     0.00000336      -808.1914559425 -1.74E-06
    17 Broy./Diag. 0.30E+00    3.2     0.00000370      -808.1914542452  1.70E-06
    18 Broy./Diag. 0.30E+00    3.2     0.00000223      -808.1914574250 -3.18E-06
    19 Broy./Diag. 0.30E+00    3.2     0.00000114      -808.1914558053  1.62E-06
    20 Broy./Diag. 0.30E+00    3.2     0.00000043      -808.1914561447 -3.39E-07

  *** SCF run converged in    20 steps ***


  Electronic density on regular grids:       -559.9999999999        0.0000000001
  Core density on regular grids:              559.9999999987       -0.0000000013
  Total charge density on r-space grids:       -0.0000000012
  Total charge density g-space grids:          -0.0000000012

  Overlap energy of the core charge distribution:               0.01841620815885
  Self energy of the core charge distribution:              -1737.24439639931302
  Core Hamiltonian energy:                                    411.16813169488125
  Hartree energy:                                             709.03499696217523
  Exchange-correlation energy:                               -190.43461959961598
  Dispersion energy:                                           -0.71848133569670
  Electronic entropic energy:                                  -0.01550367512298
  Fermi energy:                                                 0.12579424959881

  Total energy:                                              -808.19145614471392

 ENERGY| Total FORCE_EVAL ( QS ) energy [hartree]           -808.191455378129490

 MD| ***************************************************************************
 MD| Step number                                                               7
 MD| Time [fs]                                                          0.350000
 MD| Conserved quantity [hartree]                            -0.807444556433E+03
 MD| ---------------------------------------------------------------------------
 MD|                                          Instantaneous             Averages
 MD| CPU time per MD step [s]                     68.743038            87.188199
 MD| Energy drift per atom [K]          -0.642146839235E-02  -0.283127169890E-02
 MD| Potential energy [hartree]         -0.808191455378E+03  -0.808171453444E+03
 MD| Kinetic energy [hartree]            0.739267005151E+00   0.721277324304E+00
 MD| Temperature [K]                            1556.278522          1518.407287
 MD| ***************************************************************************

 Number of electrons:                                                        560
 Number of occupied orbitals:                                                311
 Number of molecular orbitals:                                               360

 Number of orbital functions:                                               1300
 Number of independent orbital functions:                                   1300

 Extrapolation method: PS Nth order
 Extrapolation order:  1


 SCF WAVEFUNCTION OPTIMIZATION

  Step     Update method      Time    Convergence         Total energy    Change
  ------------------------------------------------------------------------------
     1 Broy./Diag. 0.30E+00    2.1     0.00292736      -808.2018481933 -8.08E+02
     2 Broy./Diag. 0.30E+00    3.2     0.00736580      -808.2006566334  1.19E-03
     3 Broy./Diag. 0.30E+00    3.2     0.00746773      -808.2075429803 -6.89E-03
     4 Broy./Diag. 0.30E+00    3.3     0.00271484      -808.2007482262  6.79E-03
     5 Broy./Diag. 0.30E+00    3.2     0.00059235      -808.2021318846 -1.38E-03
     6 Broy./Diag. 0.30E+00    3.2     0.00052683      -808.2020740662  5.78E-05
     7 Broy./Diag. 0.30E+00    3.2     0.00030466      -808.2018094007  2.65E-04
     8 Broy./Diag. 0.30E+00    3.3     0.00011035      -808.2017749346  3.45E-05
     9 Broy./Diag. 0.30E+00    3.2     0.00003358      -808.2018023550 -2.74E-05
    10 Broy./Diag. 0.30E+00    3.2     0.00003879      -808.2018239008 -2.15E-05
    11 Broy./Diag. 0.30E+00    3.2     0.00004351      -808.2017934332  3.05E-05
    12 Broy./Diag. 0.30E+00    3.2     0.00001852      -808.2018444267 -5.10E-05
    13 Broy./Diag. 0.30E+00    3.2     0.00000641      -808.2018381209  6.31E-06
    14 Broy./Diag. 0.30E+00    3.2     0.00000434      -808.2018459901 -7.87E-06
    15 Broy./Diag. 0.30E+00    3.2     0.00000259      -808.2018510292 -5.04E-06
    16 Broy./Diag. 0.30E+00    3.2     0.00000279      -808.2018526955 -1.67E-06
    17 Broy./Diag. 0.30E+00    3.2     0.00000352      -808.2018511688  1.53E-06
    18 Broy./Diag. 0.30E+00    3.2     0.00000233      -808.2018542161 -3.05E-06
    19 Broy./Diag. 0.30E+00    3.2     0.00000124      -808.2018525615  1.65E-06
    20 Broy./Diag. 0.30E+00    3.3     0.00000045      -808.2018529280 -3.66E-07

  *** SCF run converged in    20 steps ***


  Electronic density on regular grids:       -559.9999999999        0.0000000001
  Core density on regular grids:              559.9999999987       -0.0000000013
  Total charge density on r-space grids:       -0.0000000012
  Total charge density g-space grids:          -0.0000000012

  Overlap energy of the core charge distribution:               0.01831402526361
  Self energy of the core charge distribution:              -1737.24439639931302
  Core Hamiltonian energy:                                    411.15758030869961
  Hartree energy:                                             709.03404897269445
  Exchange-correlation energy:                               -190.43341586817056
  Dispersion energy:                                           -0.71848504050672
  Electronic entropic energy:                                  -0.01549892653349
  Fermi energy:                                                 0.12579351509414

  Total energy:                                              -808.20185292797180

 ENERGY| Total FORCE_EVAL ( QS ) energy [hartree]           -808.201852138246181

 MD| ***************************************************************************
 MD| Step number                                                               8
 MD| Time [fs]                                                          0.400000
 MD| Conserved quantity [hartree]                            -0.807444556983E+03
 MD| ---------------------------------------------------------------------------
 MD|                                          Instantaneous             Averages
 MD| CPU time per MD step [s]                     68.682498            84.874987
 MD| Energy drift per atom [K]          -0.815737485035E-02  -0.349703459283E-02
 MD| Potential energy [hartree]         -0.808201852138E+03  -0.808175253281E+03
 MD| Kinetic energy [hartree]            0.762534984113E+00   0.726434531780E+00
 MD| Temperature [K]                            1605.261441          1529.264057
 MD| ***************************************************************************

 Number of electrons:                                                        560
 Number of occupied orbitals:                                                311
 Number of molecular orbitals:                                               360

 Number of orbital functions:                                               1300
 Number of independent orbital functions:                                   1300

 Extrapolation method: PS Nth order
 Extrapolation order:  1


 SCF WAVEFUNCTION OPTIMIZATION

  Step     Update method      Time    Convergence         Total energy    Change
  ------------------------------------------------------------------------------
     1 Broy./Diag. 0.30E+00    2.2     0.00290500      -808.2132413864 -8.08E+02
     2 Broy./Diag. 0.30E+00    3.2     0.00692294      -808.2121837888  1.06E-03
     3 Broy./Diag. 0.30E+00    3.2     0.00721967      -808.2188372402 -6.65E-03
     4 Broy./Diag. 0.30E+00    3.2     0.00281712      -808.2120783914  6.76E-03
     5 Broy./Diag. 0.30E+00    3.2     0.00064731      -808.2135729363 -1.49E-03
     6 Broy./Diag. 0.30E+00    3.2     0.00053587      -808.2134767617  9.62E-05
     7 Broy./Diag. 0.30E+00    3.2     0.00030144      -808.2132120250  2.65E-04
     8 Broy./Diag. 0.30E+00    3.2     0.00010886      -808.2131664995  4.55E-05
     9 Broy./Diag. 0.30E+00    3.2     0.00003328      -808.2131967343 -3.02E-05
    10 Broy./Diag. 0.30E+00    3.2     0.00003529      -808.2132152454 -1.85E-05
    11 Broy./Diag. 0.30E+00    3.2     0.00004192      -808.2131870707  2.82E-05
    12 Broy./Diag. 0.30E+00    3.2     0.00001881      -808.2132385000 -5.14E-05
    13 Broy./Diag. 0.30E+00    3.3     0.00000721      -808.2132311584  7.34E-06
    14 Broy./Diag. 0.30E+00    3.3     0.00000429      -808.2132394366 -8.28E-06
    15 Broy./Diag. 0.30E+00    3.2     0.00000261      -808.2132443035 -4.87E-06
    16 Broy./Diag. 0.30E+00    3.2     0.00000254      -808.2132459164 -1.61E-06
    17 Broy./Diag. 0.30E+00    3.2     0.00000335      -808.2132445794  1.34E-06
    18 Broy./Diag. 0.30E+00    3.3     0.00000237      -808.2132475092 -2.93E-06
    19 Broy./Diag. 0.30E+00    3.2     0.00000129      -808.2132458112  1.70E-06
    20 Broy./Diag. 0.30E+00    3.2     0.00000049      -808.2132462220 -4.11E-07

  *** SCF run converged in    20 steps ***


  Electronic density on regular grids:       -559.9999999999        0.0000000001
  Core density on regular grids:              559.9999999987       -0.0000000013
  Total charge density on r-space grids:       -0.0000000012
  Total charge density g-space grids:          -0.0000000012

  Overlap energy of the core charge distribution:               0.01820381024978
  Self energy of the core charge distribution:              -1737.24439639931302
  Core Hamiltonian energy:                                    411.14587823737691
  Hartree energy:                                             709.03310441407120
  Exchange-correlation energy:                               -190.43205268078668
  Dispersion energy:                                           -0.71848909535797
  Electronic entropic energy:                                  -0.01549450815777
  Fermi energy:                                                 0.12579259229313

  Total energy:                                              -808.21324622199813

 ENERGY| Total FORCE_EVAL ( QS ) energy [hartree]           -808.213245418929660

 MD| ***************************************************************************
 MD| Step number                                                               9
 MD| Time [fs]                                                          0.450000
 MD| Conserved quantity [hartree]                            -0.807444557580E+03
 MD| ---------------------------------------------------------------------------
 MD|                                          Instantaneous             Averages
 MD| CPU time per MD step [s]                     68.786689            83.087398
 MD| Energy drift per atom [K]          -0.100412892369E-01  -0.422417399772E-02
 MD| Potential energy [hartree]         -0.808213245419E+03  -0.808179474629E+03
 MD| Kinetic energy [hartree]            0.763114260120E+00   0.730510057151E+00
 MD| Temperature [K]                            1606.480912          1537.843707
 MD| ***************************************************************************

 Number of electrons:                                                        560
 Number of occupied orbitals:                                                311
 Number of molecular orbitals:                                               360

 Number of orbital functions:                                               1300
 Number of independent orbital functions:                                   1300

 Extrapolation method: PS Nth order
 Extrapolation order:  1


 SCF WAVEFUNCTION OPTIMIZATION

  Step     Update method      Time    Convergence         Total energy    Change
  ------------------------------------------------------------------------------
     1 Broy./Diag. 0.30E+00    2.2     0.00288615      -808.2258988742 -8.08E+02
     2 Broy./Diag. 0.30E+00    3.2     0.00696199      -808.2250718905  8.27E-04
     3 Broy./Diag. 0.30E+00    3.2     0.00729514      -808.2316041305 -6.53E-03
     4 Broy./Diag. 0.30E+00    3.3     0.00287656      -808.2247555209  6.85E-03
     5 Broy./Diag. 0.30E+00    3.2     0.00065207      -808.2262810953 -1.53E-03
     6 Broy./Diag. 0.30E+00    3.2     0.00053793      -808.2261599153  1.21E-04
     7 Broy./Diag. 0.30E+00    3.3     0.00031170      -808.2258727453  2.87E-04
     8 Broy./Diag. 0.30E+00    3.2     0.00011595      -808.2258223556  5.04E-05
     9 Broy./Diag. 0.30E+00    3.2     0.00003549      -808.2258500849 -2.77E-05
    10 Broy./Diag. 0.30E+00    3.2     0.00003776      -808.2258707822 -2.07E-05
    11 Broy./Diag. 0.30E+00    3.2     0.00004352      -808.2258409750  2.98E-05
    12 Broy./Diag. 0.30E+00    3.2     0.00001916      -808.2258942954 -5.33E-05
    13 Broy./Diag. 0.30E+00    3.2     0.00000709      -808.2258878045  6.49E-06
    14 Broy./Diag. 0.30E+00    3.2     0.00000437      -808.2258964443 -8.64E-06
    15 Broy./Diag. 0.30E+00    3.2     0.00000275      -808.2259016500 -5.21E-06
    16 Broy./Diag. 0.30E+00    3.2     0.00000274      -808.2259034999 -1.85E-06
    17 Broy./Diag. 0.30E+00    3.2     0.00000349      -808.2259020468  1.45E-06
    18 Broy./Diag. 0.30E+00    3.3     0.00000238      -808.2259051116 -3.06E-06
    19 Broy./Diag. 0.30E+00    3.2     0.00000129      -808.2259034252  1.69E-06
    20 Broy./Diag. 0.30E+00    3.2     0.00000050      -808.2259038056 -3.80E-07

  *** SCF run converged in    20 steps ***


  Electronic density on regular grids:       -559.9999999999        0.0000000001
  Core density on regular grids:              559.9999999987       -0.0000000013
  Total charge density on r-space grids:       -0.0000000012
  Total charge density g-space grids:          -0.0000000012

  Overlap energy of the core charge distribution:               0.01808155463966
  Self energy of the core charge distribution:              -1737.24439639931302
  Core Hamiltonian energy:                                    411.13281402106941
  Hartree energy:                                             709.03209752937323
  Exchange-correlation energy:                               -190.43051789387698
  Dispersion energy:                                           -0.71849282837433
  Electronic entropic energy:                                  -0.01548978898431
  Fermi energy:                                                 0.12579154306104

  Total energy:                                              -808.22590380556301

 ENERGY| Total FORCE_EVAL ( QS ) energy [hartree]           -808.225902955384527

 MD| ***************************************************************************
 MD| Step number                                                              10
 MD| Time [fs]                                                          0.500000
 MD| Conserved quantity [hartree]                            -0.807444558237E+03
 MD| ---------------------------------------------------------------------------
 MD|                                          Instantaneous             Averages
 MD| CPU time per MD step [s]                     68.793820            81.658040
 MD| Energy drift per atom [K]          -0.121185115954E-01  -0.501360775749E-02
 MD| Potential energy [hartree]         -0.808225902955E+03  -0.808184117462E+03
 MD| Kinetic energy [hartree]            0.761555045196E+00   0.733614555956E+00
 MD| Temperature [K]                            1603.198508          1544.379187
 MD| ***************************************************************************

 Number of electrons:                                                        560
 Number of occupied orbitals:                                                311
 Number of molecular orbitals:                                               360

 Number of orbital functions:                                               1300
 Number of independent orbital functions:                                   1300

 Extrapolation method: PS Nth order
 Extrapolation order:  1


 SCF WAVEFUNCTION OPTIMIZATION

  Step     Update method      Time    Convergence         Total energy    Change
  ------------------------------------------------------------------------------
     1 Broy./Diag. 0.30E+00    2.1     0.00284688      -808.2398263960 -8.08E+02
     2 Broy./Diag. 0.30E+00    3.2     0.00708110      -808.2391808454  6.46E-04
     3 Broy./Diag. 0.30E+00    3.2     0.00745122      -808.2456189913 -6.44E-03
     4 Broy./Diag. 0.30E+00    3.2     0.00293451      -808.2386849863  6.93E-03
     5 Broy./Diag. 0.30E+00    3.2     0.00064270      -808.2402272577 -1.54E-03
     6 Broy./Diag. 0.30E+00    3.2     0.00054018      -808.2400988696  1.28E-04
     7 Broy./Diag. 0.30E+00    3.2     0.00032272      -808.2397915832  3.07E-04
     8 Broy./Diag. 0.30E+00    3.2     0.00012306      -808.2397466300  4.50E-05
     9 Broy./Diag. 0.30E+00    3.2     0.00003746      -808.2397733437 -2.67E-05
    10 Broy./Diag. 0.30E+00    3.2     0.00004002      -808.2397962369 -2.29E-05
    11 Broy./Diag. 0.30E+00    3.4     0.00004535      -808.2397659636  3.03E-05
    12 Broy./Diag. 0.30E+00    3.2     0.00001952      -808.2398209165 -5.50E-05
    13 Broy./Diag. 0.30E+00    3.2     0.00000703      -808.2398150570  5.86E-06
    14 Broy./Diag. 0.30E+00    3.2     0.00000444      -808.2398239592 -8.90E-06
    15 Broy./Diag. 0.30E+00    3.3     0.00000285      -808.2398293072 -5.35E-06
    16 Broy./Diag. 0.30E+00    3.2     0.00000274      -808.2398312457 -1.94E-06
    17 Broy./Diag. 0.30E+00    3.2     0.00000355      -808.2398296926  1.55E-06
    18 Broy./Diag. 0.30E+00    3.3     0.00000241      -808.2398328106 -3.12E-06
    19 Broy./Diag. 0.30E+00    3.2     0.00000132      -808.2398311049  1.71E-06
    20 Broy./Diag. 0.30E+00    3.2     0.00000051      -808.2398314491 -3.44E-07

  *** SCF run converged in    20 steps ***


  Electronic density on regular grids:       -559.9999999999        0.0000000001
  Core density on regular grids:              559.9999999987       -0.0000000013
  Total charge density on r-space grids:       -0.0000000012
  Total charge density g-space grids:          -0.0000000012

  Overlap energy of the core charge distribution:               0.01794926257789
  Self energy of the core charge distribution:              -1737.24439639931302
  Core Hamiltonian energy:                                    411.11837964764572
  Hartree energy:                                             709.03103709285710
  Exchange-correlation energy:                               -190.42881965414404
  Dispersion energy:                                           -0.71849684100148
  Electronic entropic energy:                                  -0.01548455763015
  Fermi energy:                                                 0.12579067646349

  Total energy:                                              -808.23983144911415

 ENERGY| Total FORCE_EVAL ( QS ) energy [hartree]           -808.239830566801288

 MD| ***************************************************************************
 MD| Step number                                                              11
 MD| Time [fs]                                                          0.550000
 MD| Conserved quantity [hartree]                            -0.807444558951E+03
 MD| ---------------------------------------------------------------------------
 MD|                                          Instantaneous             Averages
 MD| CPU time per MD step [s]                     68.660565            80.476452
 MD| Energy drift per atom [K]          -0.143724477777E-01  -0.586441139569E-02
 MD| Potential energy [hartree]         -0.808239830567E+03  -0.808189182290E+03
 MD| Kinetic energy [hartree]            0.773676984996E+00   0.737256594959E+00
 MD| Temperature [K]                            1628.717184          1552.046278
 MD| ***************************************************************************

 Number of electrons:                                                        560
 Number of occupied orbitals:                                                311
 Number of molecular orbitals:                                               360

 Number of orbital functions:                                               1300
 Number of independent orbital functions:                                   1300

 Extrapolation method: PS Nth order
 Extrapolation order:  1


 SCF WAVEFUNCTION OPTIMIZATION

  Step     Update method      Time    Convergence         Total energy    Change
  ------------------------------------------------------------------------------
     1 Broy./Diag. 0.30E+00    2.2     0.00271234      -808.2551386571 -8.08E+02
     2 Broy./Diag. 0.30E+00    3.2     0.00675289      -808.2548682494  2.70E-04
     3 Broy./Diag. 0.30E+00    3.2     0.00727685      -808.2608644010 -6.00E-03
     4 Broy./Diag. 0.30E+00    3.2     0.00301647      -808.2540309919  6.83E-03
     5 Broy./Diag. 0.30E+00    3.2     0.00065544      -808.2556332142 -1.60E-03
     6 Broy./Diag. 0.30E+00    3.2     0.00053964      -808.2554511189  1.82E-04
     7 Broy./Diag. 0.30E+00    3.2     0.00032691      -808.2551111769  3.40E-04
     8 Broy./Diag. 0.30E+00    3.2     0.00012889      -808.2550611793  5.00E-05
     9 Broy./Diag. 0.30E+00    3.2     0.00003935      -808.2550841445 -2.30E-05
    10 Broy./Diag. 0.30E+00    3.2     0.00003649      -808.2551050507 -2.09E-05
    11 Broy./Diag. 0.30E+00    3.4     0.00004441      -808.2550772593  2.78E-05
    12 Broy./Diag. 0.30E+00    3.2     0.00002086      -808.2551324815 -5.52E-05
    13 Broy./Diag. 0.30E+00    3.2     0.00000710      -808.2551257110  6.77E-06
    14 Broy./Diag. 0.30E+00    3.2     0.00000447      -808.2551356204 -9.91E-06
    15 Broy./Diag. 0.30E+00    3.2     0.00000280      -808.2551411993 -5.58E-06
    16 Broy./Diag. 0.30E+00    3.2     0.00000268      -808.2551433317 -2.13E-06
    17 Broy./Diag. 0.30E+00    3.2     0.00000342      -808.2551421209  1.21E-06
    18 Broy./Diag. 0.30E+00    3.2     0.00000240      -808.2551451501 -3.03E-06
    19 Broy./Diag. 0.30E+00    3.2     0.00000137      -808.2551434317  1.72E-06
    20 Broy./Diag. 0.30E+00    3.3     0.00000054      -808.2551438938 -4.62E-07

  *** SCF run converged in    20 steps ***


  Electronic density on regular grids:       -559.9999999999        0.0000000001
  Core density on regular grids:              559.9999999987       -0.0000000013
  Total charge density on r-space grids:       -0.0000000012
  Total charge density g-space grids:          -0.0000000012

  Overlap energy of the core charge distribution:               0.01780577574350
  Self energy of the core charge distribution:              -1737.24439639931302
  Core Hamiltonian energy:                                    411.10225645059080
  Hartree energy:                                             709.03004984505924
  Exchange-correlation energy:                               -190.42687980148764
  Dispersion energy:                                           -0.71850079806479
  Electronic entropic energy:                                  -0.01547896632842
  Fermi energy:                                                 0.12578944498078

  Total energy:                                              -808.25514389381351

 ENERGY| Total FORCE_EVAL ( QS ) energy [hartree]           -808.255142959628074

 MD| ***************************************************************************
 MD| Step number                                                              12
 MD| Time [fs]                                                          0.600000
 MD| Conserved quantity [hartree]                            -0.807444559727E+03
 MD| ---------------------------------------------------------------------------
 MD|                                          Instantaneous             Averages
 MD| CPU time per MD step [s]                     68.627488            79.489038
 MD| Energy drift per atom [K]          -0.168218652829E-01  -0.677753255296E-02
 MD| Potential energy [hartree]         -0.808255142960E+03  -0.808194679012E+03
 MD| Kinetic energy [hartree]            0.801250918409E+00   0.742589455247E+00
 MD| Temperature [K]                            1686.764844          1563.272825
 MD| ***************************************************************************

 Number of electrons:                                                        560
 Number of occupied orbitals:                                                311
 Number of molecular orbitals:                                               360

 Number of orbital functions:                                               1300
 Number of independent orbital functions:                                   1300

 Extrapolation method: PS Nth order
 Extrapolation order:  1


 SCF WAVEFUNCTION OPTIMIZATION

  Step     Update method      Time    Convergence         Total energy    Change
  ------------------------------------------------------------------------------
     1 Broy./Diag. 0.30E+00    2.1     0.00263110      -808.2718546325 -8.08E+02
     2 Broy./Diag. 0.30E+00    3.1     0.00621027      -808.2718937872 -3.92E-05
     3 Broy./Diag. 0.30E+00    3.2     0.00693931      -808.2773420511 -5.45E-03
     4 Broy./Diag. 0.30E+00    3.2     0.00307972      -808.2707300305  6.61E-03
     5 Broy./Diag. 0.30E+00    3.2     0.00069166      -808.2724175409 -1.69E-03
     6 Broy./Diag. 0.30E+00    3.2     0.00053692      -808.2721784111  2.39E-04
     7 Broy./Diag. 0.30E+00    3.2     0.00033591      -808.2718227508  3.56E-04
     8 Broy./Diag. 0.30E+00    3.2     0.00013883      -808.2717782869  4.45E-05
     9 Broy./Diag. 0.30E+00    3.2     0.00004140      -808.2717984385 -2.02E-05
    10 Broy./Diag. 0.30E+00    3.2     0.00003028      -808.2718176545 -1.92E-05
    11 Broy./Diag. 0.30E+00    3.2     0.00004125      -808.2717951726  2.25E-05
    12 Broy./Diag. 0.30E+00    3.4     0.00002181      -808.2718498859 -5.47E-05
    13 Broy./Diag. 0.30E+00    3.2     0.00000820      -808.2718408223  9.06E-06
    14 Broy./Diag. 0.30E+00    3.2     0.00000459      -808.2718521658 -1.13E-05
    15 Broy./Diag. 0.30E+00    3.2     0.00000279      -808.2718572132 -5.05E-06
    16 Broy./Diag. 0.30E+00    3.3     0.00000244      -808.2718594798 -2.27E-06
    17 Broy./Diag. 0.30E+00    3.3     0.00000314      -808.2718586146  8.65E-07
    18 Broy./Diag. 0.30E+00    3.2     0.00000241      -808.2718613647 -2.75E-06
    19 Broy./Diag. 0.30E+00    3.2     0.00000146      -808.2718595807  1.78E-06
    20 Broy./Diag. 0.30E+00    3.2     0.00000060      -808.2718601831 -6.02E-07

  *** SCF run converged in    20 steps ***


  Electronic density on regular grids:       -559.9999999999        0.0000000001
  Core density on regular grids:              559.9999999987       -0.0000000013
  Total charge density on r-space grids:       -0.0000000012
  Total charge density g-space grids:          -0.0000000012

  Overlap energy of the core charge distribution:               0.01765113359645
  Self energy of the core charge distribution:              -1737.24439639931302
  Core Hamiltonian energy:                                    411.08468449357554
  Hartree energy:                                             709.02896301937767
  Exchange-correlation energy:                               -190.42478465968799
  Dispersion energy:                                           -0.71850496302566
  Electronic entropic energy:                                  -0.01547280772669
  Fermi energy:                                                 0.12578820725969

  Total energy:                                              -808.27186018305565

 ENERGY| Total FORCE_EVAL ( QS ) energy [hartree]           -808.271859190942564

 MD| ***************************************************************************
 MD| Step number                                                              13
 MD| Time [fs]                                                          0.650000
 MD| Conserved quantity [hartree]                            -0.807444560564E+03
 MD| ---------------------------------------------------------------------------
 MD|                                          Instantaneous             Averages
 MD| CPU time per MD step [s]                     68.563812            78.648636
 MD| Energy drift per atom [K]          -0.194662317228E-01  -0.775358633525E-02
 MD| Potential energy [hartree]         -0.808271859191E+03  -0.808200615949E+03
 MD| Kinetic energy [hartree]            0.814526403793E+00   0.748123066673E+00
 MD| Temperature [K]                            1714.711922          1574.921986
 MD| ***************************************************************************

 Number of electrons:                                                        560
 Number of occupied orbitals:                                                311
 Number of molecular orbitals:                                               360

 Number of orbital functions:                                               1300
 Number of independent orbital functions:                                   1300

 Extrapolation method: PS Nth order
 Extrapolation order:  1


 SCF WAVEFUNCTION OPTIMIZATION

  Step     Update method      Time    Convergence         Total energy    Change
  ------------------------------------------------------------------------------
     1 Broy./Diag. 0.30E+00    2.2     0.00245553      -808.2898913398 -8.08E+02
     2 Broy./Diag. 0.30E+00    3.2     0.00624973      -808.2902546644 -3.63E-04
     3 Broy./Diag. 0.30E+00    3.2     0.00709171      -808.2953604105 -5.11E-03
     4 Broy./Diag. 0.30E+00    3.2     0.00320248      -808.2887315418  6.63E-03
     5 Broy./Diag. 0.30E+00    3.4     0.00068903      -808.2905042468 -1.77E-03
     6 Broy./Diag. 0.30E+00    3.2     0.00053736      -808.2902394592  2.65E-04
     7 Broy./Diag. 0.30E+00    3.2     0.00034167      -808.2898579130  3.82E-04
     8 Broy./Diag. 0.30E+00    3.2     0.00014522      -808.2898167784  4.11E-05
     9 Broy./Diag. 0.30E+00    3.2     0.00004326      -808.2898346311 -1.79E-05
    10 Broy./Diag. 0.30E+00    3.2     0.00002671      -808.2898506225 -1.60E-05
    11 Broy./Diag. 0.30E+00    3.2     0.00003942      -808.2898334285  1.72E-05
    12 Broy./Diag. 0.30E+00    3.2     0.00002178      -808.2898875289 -5.41E-05
    13 Broy./Diag. 0.30E+00    3.2     0.00000954      -808.2898770533  1.05E-05
    14 Broy./Diag. 0.30E+00    3.2     0.00000478      -808.2898893063 -1.23E-05
    15 Broy./Diag. 0.30E+00    3.2     0.00000276      -808.2898940611 -4.75E-06
    16 Broy./Diag. 0.30E+00    3.2     0.00000239      -808.2898962534 -2.19E-06
    17 Broy./Diag. 0.30E+00    3.2     0.00000262      -808.2898956946  5.59E-07
    18 Broy./Diag. 0.30E+00    3.3     0.00000253      -808.2898982866 -2.59E-06
    19 Broy./Diag. 0.30E+00    3.2     0.00000163      -808.2898963572  1.93E-06
    20 Broy./Diag. 0.30E+00    3.3     0.00000066      -808.2898970009 -6.44E-07

  *** SCF run converged in    20 steps ***


  Electronic density on regular grids:       -559.9999999999        0.0000000001
  Core density on regular grids:              559.9999999987       -0.0000000013
  Total charge density on r-space grids:       -0.0000000012
  Total charge density g-space grids:          -0.0000000012

  Overlap energy of the core charge distribution:               0.01748683483712
  Self energy of the core charge distribution:              -1737.24439639931302
  Core Hamiltonian energy:                                    411.06563054950885
  Hartree energy:                                             709.02786823678980
  Exchange-correlation energy:                               -190.42251081249137
  Dispersion energy:                                           -0.71850901662907
  Electronic entropic energy:                                  -0.01546639370440
  Fermi energy:                                                 0.12578719517823

  Total energy:                                              -808.28989700094587

 ENERGY| Total FORCE_EVAL ( QS ) energy [hartree]           -808.289896027109648

 MD| ***************************************************************************
 MD| Step number                                                              14
 MD| Time [fs]                                                          0.700000
 MD| Conserved quantity [hartree]                            -0.807444561457E+03
 MD| ---------------------------------------------------------------------------
 MD|                                          Instantaneous             Averages
 MD| CPU time per MD step [s]                     68.904851            77.952651
 MD| Energy drift per atom [K]          -0.222860214021E-01  -0.879161741145E-02
 MD| Potential energy [hartree]         -0.808289896027E+03  -0.808206993097E+03
 MD| Kinetic energy [hartree]            0.823583990524E+00   0.753513132663E+00
 MD| Temperature [K]                            1733.779631          1586.268961
 MD| ***************************************************************************

 Number of electrons:                                                        560
 Number of occupied orbitals:                                                311
 Number of molecular orbitals:                                               360

 Number of orbital functions:                                               1300
 Number of independent orbital functions:                                   1300

 Extrapolation method: PS Nth order
 Extrapolation order:  1


 SCF WAVEFUNCTION OPTIMIZATION

  Step     Update method      Time    Convergence         Total energy    Change
[...]
 MD| CPU time per MD step [s]                     72.598335            73.081167
 MD| Energy drift per atom [K]          -0.167022406573E+00  -0.676033251728E-01
 MD| Potential energy [hartree]         -0.809414697882E+03  -0.808624862910E+03
 MD| Kinetic energy [hartree]            0.173748318674E+01   0.111216345590E+01
 MD| Temperature [K]                            3657.687610          2341.286825
 MD| ***************************************************************************

 Number of electrons:                                                        560
 Number of occupied orbitals:                                                311
 Number of molecular orbitals:                                               360

 Number of orbital functions:                                               1300
 Number of independent orbital functions:                                   1300

 Extrapolation method: PS Nth order
 Extrapolation order:  1


 SCF WAVEFUNCTION OPTIMIZATION

  Step     Update method      Time    Convergence         Total energy    Change
  ------------------------------------------------------------------------------
     1 Broy./Diag. 0.30E+00    2.1     0.00351316      -809.4579131743 -8.09E+02
     2 Broy./Diag. 0.30E+00    3.1     0.00317155      -809.4640262721 -6.11E-03
     3 Broy./Diag. 0.30E+00    3.2     0.00390659      -809.4633699843  6.56E-04
     4 Broy./Diag. 0.30E+00    3.3     0.00302360      -809.4580153915  5.35E-03
     5 Broy./Diag. 0.30E+00    3.2     0.00197863      -809.4601860186 -2.17E-03
     6 Broy./Diag. 0.30E+00    3.2     0.00092860      -809.4582949450  1.89E-03
     7 Broy./Diag. 0.30E+00    3.3     0.00043372      -809.4580603124  2.35E-04
     8 Broy./Diag. 0.30E+00    3.2     0.00027677      -809.4578277161  2.33E-04
     9 Broy./Diag. 0.30E+00    3.2     0.00012964      -809.4578280727 -3.57E-07
    10 Broy./Diag. 0.30E+00    3.2     0.00003805      -809.4578404292 -1.24E-05
    11 Broy./Diag. 0.30E+00    3.3     0.00003166      -809.4578456970 -5.27E-06
    12 Broy./Diag. 0.30E+00    3.2     0.00004097      -809.4578791853 -3.35E-05
    13 Broy./Diag. 0.30E+00    3.2     0.00003542      -809.4579093408 -3.02E-05
    14 Broy./Diag. 0.30E+00    3.2     0.00001798      -809.4578994485  9.89E-06
    15 Broy./Diag. 0.30E+00    3.2     0.00000547      -809.4579236071 -2.42E-05
    16 Broy./Diag. 0.30E+00    3.2     0.00000337      -809.4579248553 -1.25E-06
    17 Broy./Diag. 0.30E+00    3.2     0.00000348      -809.4579259076 -1.05E-06
    18 Broy./Diag. 0.30E+00    3.2     0.00000246      -809.4579283581 -2.45E-06
    19 Broy./Diag. 0.30E+00    3.3     0.00000376      -809.4579284563 -9.82E-08
    20 Broy./Diag. 0.30E+00    3.2     0.00000232      -809.4579263075  2.15E-06
    21 Broy./Diag. 0.30E+00    3.2     0.00000077      -809.4579276860 -1.38E-06

  *** SCF run converged in    21 steps ***


  Electronic density on regular grids:       -559.9999999999        0.0000000001
  Core density on regular grids:              559.9999999987       -0.0000000013
  Total charge density on r-space grids:       -0.0000000012
  Total charge density g-space grids:          -0.0000000012

  Overlap energy of the core charge distribution:               0.00909797228756
  Self energy of the core charge distribution:              -1737.24439639931302
  Core Hamiltonian energy:                                    409.69975699052702
  Hartree energy:                                             709.05464109802847
  Exchange-correlation energy:                               -190.24317374544916
  Dispersion energy:                                           -0.71862257813020
  Electronic entropic energy:                                  -0.01523102426038
  Fermi energy:                                                 0.12574076694980

  Total energy:                                              -809.45792768601780

 ENERGY| Total FORCE_EVAL ( QS ) energy [hartree]           -809.457926106796549

 MD| ***************************************************************************
 MD| Step number                                                              49
 MD| Time [fs]                                                          2.450000
 MD| Conserved quantity [hartree]                            -0.807444608737E+03
 MD| ---------------------------------------------------------------------------
 MD|                                          Instantaneous             Averages
 MD| CPU time per MD step [s]                     71.958819            73.058262
 MD| Energy drift per atom [K]          -0.171582500390E+00  -0.697253491568E-01
 MD| Potential energy [hartree]         -0.809457926107E+03  -0.808641864200E+03
 MD| Kinetic energy [hartree]            0.178584332363E+01   0.112591202463E+01
 MD| Temperature [K]                            3759.493645          2370.229821
 MD| ***************************************************************************

 Number of electrons:                                                        560
 Number of occupied orbitals:                                                311
 Number of molecular orbitals:                                               360

 Number of orbital functions:                                               1300
 Number of independent orbital functions:                                   1300

 Extrapolation method: PS Nth order
 Extrapolation order:  1


 SCF WAVEFUNCTION OPTIMIZATION

  Step     Update method      Time    Convergence         Total energy    Change
  ------------------------------------------------------------------------------
     1 Broy./Diag. 0.30E+00    2.2     0.00350964      -809.5014549051 -8.10E+02
     2 Broy./Diag. 0.30E+00    3.2     0.00310996      -809.5076583982 -6.20E-03
     3 Broy./Diag. 0.30E+00    3.2     0.00385276      -809.5069181495  7.40E-04
     4 Broy./Diag. 0.30E+00    3.2     0.00320937      -809.5014965178  5.42E-03
     5 Broy./Diag. 0.30E+00    3.2     0.00200921      -809.5037486244 -2.25E-03
     6 Broy./Diag. 0.30E+00    3.2     0.00090444      -809.5018563958  1.89E-03
     7 Broy./Diag. 0.30E+00    3.2     0.00044202      -809.5015871274  2.69E-04
     8 Broy./Diag. 0.30E+00    3.2     0.00028029      -809.5013700835  2.17E-04
     9 Broy./Diag. 0.30E+00    3.2     0.00013095      -809.5013688343  1.25E-06
    10 Broy./Diag. 0.30E+00    3.2     0.00003667      -809.5013810142 -1.22E-05
    11 Broy./Diag. 0.30E+00    3.2     0.00003115      -809.5013901527 -9.14E-06
    12 Broy./Diag. 0.30E+00    3.2     0.00004438      -809.5014193473 -2.92E-05
    13 Broy./Diag. 0.30E+00    3.2     0.00003542      -809.5014526533 -3.33E-05
    14 Broy./Diag. 0.30E+00    3.3     0.00001706      -809.5014420264  1.06E-05
    15 Broy./Diag. 0.30E+00    3.2     0.00000536      -809.5014657961 -2.38E-05
    16 Broy./Diag. 0.30E+00    3.2     0.00000382      -809.5014671159 -1.32E-06
    17 Broy./Diag. 0.30E+00    3.2     0.00000380      -809.5014680811 -9.65E-07
    18 Broy./Diag. 0.30E+00    3.3     0.00000271      -809.5014704126 -2.33E-06
    19 Broy./Diag. 0.30E+00    3.2     0.00000388      -809.5014706770 -2.64E-07
    20 Broy./Diag. 0.30E+00    3.2     0.00000226      -809.5014683366  2.34E-06
    21 Broy./Diag. 0.30E+00    3.2     0.00000071      -809.5014697352 -1.40E-06

  *** SCF run converged in    21 steps ***


  Electronic density on regular grids:       -559.9999999999        0.0000000001
  Core density on regular grids:              559.9999999987       -0.0000000013
  Total charge density on r-space grids:       -0.0000000012
  Total charge density g-space grids:          -0.0000000012

  Overlap energy of the core charge distribution:               0.00885943851934
  Self energy of the core charge distribution:              -1737.24439639931302
  Core Hamiltonian energy:                                    409.64514127383688
  Hartree energy:                                             709.05846171526093
  Exchange-correlation energy:                               -190.23568681661305
  Dispersion energy:                                           -0.71862564879141
  Electronic entropic energy:                                  -0.01522329834756
  Fermi energy:                                                 0.12574005035627

  Total energy:                                              -809.50146973516087

 ENERGY| Total FORCE_EVAL ( QS ) energy [hartree]           -809.501468180018037

 MD| ***************************************************************************
 MD| Step number                                                              50
 MD| Time [fs]                                                          2.500000
 MD| Conserved quantity [hartree]                            -0.807444610168E+03
 MD| ---------------------------------------------------------------------------
 MD|                                          Instantaneous             Averages
 MD| CPU time per MD step [s]                     71.945359            73.036004
 MD| Energy drift per atom [K]          -0.176100884105E+00  -0.718528598558E-01
 MD| Potential energy [hartree]         -0.809501468180E+03  -0.808659056279E+03
 MD| Kinetic energy [hartree]            0.182972732762E+01   0.113998833069E+01
 MD| Temperature [K]                            3851.876684          2399.862758
 MD| ***************************************************************************

 Number of electrons:                                                        560
 Number of occupied orbitals:                                                311
 Number of molecular orbitals:                                               360

 Number of orbital functions:                                               1300
 Number of independent orbital functions:                                   1300

 Extrapolation method: PS Nth order
 Extrapolation order:  1


 SCF WAVEFUNCTION OPTIMIZATION

  Step     Update method      Time    Convergence         Total energy    Change
  ------------------------------------------------------------------------------
     1 Broy./Diag. 0.30E+00    2.2     0.00352539      -809.5451959676 -8.10E+02
     2 Broy./Diag. 0.30E+00    3.2     0.00332293      -809.5514433227 -6.25E-03
     3 Broy./Diag. 0.30E+00    3.2     0.00407702      -809.5505705106  8.73E-04
     4 Broy./Diag. 0.30E+00    3.2     0.00299360      -809.5453239387  5.25E-03
     5 Broy./Diag. 0.30E+00    3.2     0.00202187      -809.5475003259 -2.18E-03
     6 Broy./Diag. 0.30E+00    3.2     0.00098289      -809.5455474292  1.95E-03
     7 Broy./Diag. 0.30E+00    3.3     0.00043662      -809.5453483627  1.99E-04
     8 Broy./Diag. 0.30E+00    3.2     0.00028165      -809.5451105731  2.38E-04
     9 Broy./Diag. 0.30E+00    3.3     0.00013311      -809.5451099377  6.35E-07
    10 Broy./Diag. 0.30E+00    3.3     0.00003710      -809.5451217731 -1.18E-05
    11 Broy./Diag. 0.30E+00    3.2     0.00003128      -809.5451305061 -8.73E-06
    12 Broy./Diag. 0.30E+00    3.2     0.00004440      -809.5451603379 -2.98E-05
    13 Broy./Diag. 0.30E+00    3.2     0.00003620      -809.5451937908 -3.35E-05
    14 Broy./Diag. 0.30E+00    3.2     0.00001757      -809.5451829919  1.08E-05
    15 Broy./Diag. 0.30E+00    3.2     0.00000554      -809.5452071500 -2.42E-05
    16 Broy./Diag. 0.30E+00    3.2     0.00000407      -809.5452085513 -1.40E-06
    17 Broy./Diag. 0.30E+00    3.2     0.00000391      -809.5452093694 -8.18E-07
    18 Broy./Diag. 0.30E+00    3.3     0.00000264      -809.5452118485 -2.48E-06
    19 Broy./Diag. 0.30E+00    3.2     0.00000392      -809.5452120486 -2.00E-07
    20 Broy./Diag. 0.30E+00    3.2     0.00000232      -809.5452097145  2.33E-06
    21 Broy./Diag. 0.30E+00    3.2     0.00000073      -809.5452111231 -1.41E-06

  *** SCF run converged in    21 steps ***


  Electronic density on regular grids:       -559.9999999999        0.0000000001
  Core density on regular grids:              559.9999999987       -0.0000000013
  Total charge density on r-space grids:       -0.0000000012
  Total charge density g-space grids:          -0.0000000012

  Overlap energy of the core charge distribution:               0.00862449812915
  Self energy of the core charge distribution:              -1737.24439639931302
  Core Hamiltonian energy:                                    409.59021381676860
  Hartree energy:                                             709.06236614515410
  Exchange-correlation energy:                               -190.22817615577191
  Dispersion energy:                                           -0.71862817087511
  Electronic entropic energy:                                  -0.01521485742956
  Fermi energy:                                                 0.12573897038085

  Total energy:                                              -809.54521112309430

 ENERGY| Total FORCE_EVAL ( QS ) energy [hartree]           -809.545209534093942

 MD| ***************************************************************************
 MD| Step number                                                              51
 MD| Time [fs]                                                          2.550000
 MD| Conserved quantity [hartree]                            -0.807444611587E+03
 MD| ---------------------------------------------------------------------------
 MD|                                          Instantaneous             Averages
 MD| CPU time per MD step [s]                     72.098163            73.017615
 MD| Energy drift per atom [K]          -0.180581838724E+00  -0.739848006179E-01
 MD| Potential energy [hartree]         -0.809545209534E+03  -0.808676431833E+03
 MD| Kinetic energy [hartree]            0.185841939614E+01   0.115407521432E+01
 MD| Temperature [K]                            3912.278203          2429.517963
 MD| ***************************************************************************

 Number of electrons:                                                        560
 Number of occupied orbitals:                                                311
 Number of molecular orbitals:                                               360

 Number of orbital functions:                                               1300
 Number of independent orbital functions:                                   1300

 Extrapolation method: PS Nth order
 Extrapolation order:  1


 SCF WAVEFUNCTION OPTIMIZATION

  Step     Update method      Time    Convergence         Total energy    Change
  ------------------------------------------------------------------------------
     1 Broy./Diag. 0.30E+00    2.2     0.00361737      -809.5889863852 -8.10E+02
     2 Broy./Diag. 0.30E+00    3.2     0.00366267      -809.5952312755 -6.24E-03
     3 Broy./Diag. 0.30E+00    3.2     0.00443066      -809.5943505643  8.81E-04
     4 Broy./Diag. 0.30E+00    3.2     0.00286516      -809.5891369411  5.21E-03
     5 Broy./Diag. 0.30E+00    3.2     0.00201419      -809.5912763542 -2.14E-03
     6 Broy./Diag. 0.30E+00    3.2     0.00103970      -809.5893060037  1.97E-03
     7 Broy./Diag. 0.30E+00    3.3     0.00043248      -809.5891586889  1.47E-04
     8 Broy./Diag. 0.30E+00    3.2     0.00028116      -809.5889019467  2.57E-04
     9 Broy./Diag. 0.30E+00    3.2     0.00013488      -809.5888989972  2.95E-06
    10 Broy./Diag. 0.30E+00    3.2     0.00003860      -809.5889130551 -1.41E-05
    11 Broy./Diag. 0.30E+00    3.2     0.00003183      -809.5889184061 -5.35E-06
    12 Broy./Diag. 0.30E+00    3.2     0.00004193      -809.5889529175 -3.45E-05
    13 Broy./Diag. 0.30E+00    3.3     0.00003693      -809.5889830964 -3.02E-05
    14 Broy./Diag. 0.30E+00    3.2     0.00001874      -809.5889729341  1.02E-05
    15 Broy./Diag. 0.30E+00    3.2     0.00000568      -809.5889977103 -2.48E-05
    16 Broy./Diag. 0.30E+00    3.2     0.00000402      -809.5889988201 -1.11E-06
    17 Broy./Diag. 0.30E+00    3.2     0.00000310      -809.5889998218 -1.00E-06
    18 Broy./Diag. 0.30E+00    3.3     0.00000244      -809.5890023650 -2.54E-06
    19 Broy./Diag. 0.30E+00    3.3     0.00000392      -809.5890023967 -3.17E-08
    20 Broy./Diag. 0.30E+00    3.3     0.00000242      -809.5890002425  2.15E-06
    21 Broy./Diag. 0.30E+00    3.2     0.00000092      -809.5890016677 -1.43E-06

  *** SCF run converged in    21 steps ***


  Electronic density on regular grids:       -559.9999999999        0.0000000001
  Core density on regular grids:              559.9999999987       -0.0000000013
  Total charge density on r-space grids:       -0.0000000012
  Total charge density g-space grids:          -0.0000000012

  Overlap energy of the core charge distribution:               0.00839337647642
  Self energy of the core charge distribution:              -1737.24439639931302
  Core Hamiltonian energy:                                    409.53507971370743
  Hartree energy:                                             709.06639843494372
  Exchange-correlation energy:                               -190.22063978454798
  Dispersion energy:                                           -0.71863039569569
  Electronic entropic energy:                                  -0.01520661359894
  Fermi energy:                                                 0.12573791977327

  Total energy:                                              -809.58900166773640

 ENERGY| Total FORCE_EVAL ( QS ) energy [hartree]           -809.589000036896891

 MD| ***************************************************************************
 MD| Step number                                                              52
 MD| Time [fs]                                                          2.600000
 MD| Conserved quantity [hartree]                            -0.807444612989E+03
 MD| ---------------------------------------------------------------------------
 MD|                                          Instantaneous             Averages
 MD| CPU time per MD step [s]                     72.052674            72.999059
 MD| Energy drift per atom [K]          -0.185011535073E+00  -0.761199301266E-01
 MD| Potential energy [hartree]         -0.809589000037E+03  -0.808693981222E+03
 MD| Kinetic energy [hartree]            0.188305981347E+01   0.116809414892E+01
 MD| Temperature [K]                            3964.150331          2459.030124
 MD| ***************************************************************************

 Number of electrons:                                                        560
 Number of occupied orbitals:                                                311
 Number of molecular orbitals:                                               360

 Number of orbital functions:                                               1300
 Number of independent orbital functions:                                   1300

 Extrapolation method: PS Nth order
 Extrapolation order:  1


 SCF WAVEFUNCTION OPTIMIZATION

  Step     Update method      Time    Convergence         Total energy    Change
  ------------------------------------------------------------------------------
     1 Broy./Diag. 0.30E+00    2.2     0.00366974      -809.6326836968 -8.10E+02
     2 Broy./Diag. 0.30E+00    3.2     0.00387376      -809.6389177899 -6.23E-03
     3 Broy./Diag. 0.30E+00    3.2     0.00467225      -809.6380329041  8.85E-04
     4 Broy./Diag. 0.30E+00    3.2     0.00292650      -809.6327797058  5.25E-03
     5 Broy./Diag. 0.30E+00    3.3     0.00202188      -809.6349608119 -2.18E-03
     6 Broy./Diag. 0.30E+00    3.2     0.00104441      -809.6330048729  1.96E-03
     7 Broy./Diag. 0.30E+00    3.2     0.00043290      -809.6328548904  1.50E-04
     8 Broy./Diag. 0.30E+00    3.2     0.00027369      -809.6326004328  2.54E-04
     9 Broy./Diag. 0.30E+00    3.2     0.00013328      -809.6325945432  5.89E-06
    10 Broy./Diag. 0.30E+00    3.2     0.00003737      -809.6326093687 -1.48E-05
    11 Broy./Diag. 0.30E+00    3.4     0.00003072      -809.6326173127 -7.94E-06
