 DBCSR| CPU Multiplication driver                                           BLAS (U)
 DBCSR| Multrec recursion limit                                              512 (U)
 DBCSR| Multiplication stack size                                           1000 (D)
 DBCSR| Maximum elements for images                                    UNLIMITED (U)
 DBCSR| Multiplicative factor virtual images                                   1 (U)
 DBCSR| Use multiplication densification                                       T (D)
 DBCSR| Multiplication size stacks                                             3 (U)
 DBCSR| Use memory pool for CPU allocation                                     F (U)
 DBCSR| Number of 3D layers                                               SINGLE (U)
 DBCSR| Use MPI memory allocation                                              F (U)
 DBCSR| Use RMA algorithm                                                      F (U)
 DBCSR| Use Communication thread                                               T (U)
 DBCSR| Communication thread load                                             87 (D)
 DBCSR| MPI: My process id                                                     0
 DBCSR| MPI: Number of processes                                               6
 DBCSR| OMP: Current number of threads                                         1
 DBCSR| OMP: Max number of threads                                             1
 DBCSR| Split modifier for TAS multiplication algorithm                  1.0E+00 (U)


  **** **** ******  **  PROGRAM STARTED AT               2025-10-02 10:53:57.916
 ***** ** ***  *** **   PROGRAM STARTED ON                                   Mac
 **    ****   ******    PROGRAM STARTED BY                           jdmusgraves
 ***** **    ** ** **   PROGRAM PROCESS ID                                 31817
  **** **  *******  **  PROGRAM STARTED IN /Users/jdmusgraves/GitHub/local_shake
                                           down_kit

 CP2K| version string:                                       CP2K version 2025.1
 CP2K| source code revision number:                                             
 CP2K| cp2kflags: omp libint fftw3 libxc parallel scalapack no_statm_access     
 CP2K| is freely available from                            https://www.cp2k.org/
 CP2K| Program compiled at                                   2025-01-01 12:26:53
 CP2K| Program compiled on                                                      
 CP2K| Program compiled for                                                arm64
 CP2K| Data directory path                         /opt/homebrew/share/cp2k/data
 CP2K| Input file name                               inputs/md_as40se60_melt.inp

 GLOBAL| Force Environment number                                              1
 GLOBAL| Basis set file name                                        BASIS_MOLOPT
 GLOBAL| Potential file name                                      GTH_POTENTIALS
 GLOBAL| MM Potential file name                                     MM_POTENTIAL
 GLOBAL| Coordinate file name                       inputs/as40se60_100_seed.xyz
 GLOBAL| Method name                                                        CP2K
 GLOBAL| Project name                                              as40se60_melt
 GLOBAL| Run type                                                             MD
 GLOBAL| FFT library                                                       FFTW3
 GLOBAL| Diagonalization library                                       ScaLAPACK
 GLOBAL| DGEMM library                                                      BLAS
 GLOBAL| Orthonormality check for eigenvectors                          DISABLED
 GLOBAL| Matrix multiplication library                                 ScaLAPACK
 GLOBAL| All-to-all communication in single precision                          F
 GLOBAL| FFTs using library dependent lengths                                  F
 GLOBAL| Grid backend                                                       AUTO
 GLOBAL| Global print level                                                  LOW
 GLOBAL| MPI I/O enabled                                                       T
 GLOBAL| Total number of message passing processes                             6
 GLOBAL| Number of threads for this process                                    1
 GLOBAL| This output is from process                                           0
 GLOBAL| OpenMP stack size per thread (OMP_STACKSIZE)                    default
 GLOBAL| CPU model name                                                  UNKNOWN
 GLOBAL| CPUID                                                              2000

 MEMORY| system memory details [Kb]
 MEMORY|                        rank 0           min           max       average
 MEMORY| MemTotal                    0             0             0             0
 MEMORY| MemFree                     0             0             0             0
 MEMORY| Buffers                     0             0             0             0
 MEMORY| Cached                      0             0             0             0
 MEMORY| Slab                        0             0             0             0
 MEMORY| SReclaimable                0             0             0             0
 MEMORY| MemLikelyFree               0             0             0             0


 GENERATE|  Preliminary Number of Bonds generated:                             0
 GENERATE|  Achieved consistency in connectivity generation.

 *******************************************************************************
 *******************************************************************************
 **                                                                           **
 **     #####                         ##              ##                      **
 **    ##   ##            ##          ##              ##                      **
 **   ##     ##                       ##            ######                    **
 **   ##     ##  ##   ##  ##   #####  ##  ##   ####   ##    #####    #####    **
 **   ##     ##  ##   ##  ##  ##      ## ##   ##      ##   ##   ##  ##   ##   **
 **   ##  ## ##  ##   ##  ##  ##      ####     ###    ##   ######   ######    **
 **    ##  ###   ##   ##  ##  ##      ## ##      ##   ##   ##       ##        **
 **     #######   #####   ##   #####  ##  ##  ####    ##    #####   ##        **
 **           ##                                                    ##        **
 **                                                                           **
 **                                                ... make the atoms dance   **
 **                                                                           **
 **            Copyright (C) by CP2K developers group (2000-2025)             **
 **                      J. Chem. Phys. 152, 194103 (2020)                    **
 **                                                                           **
 *******************************************************************************


 TOTAL NUMBERS AND MAXIMUM NUMBERS

  Total number of            - Atomic kinds:                                   2
                             - Atoms:                                        100
                             - Shell sets:                                   100
                             - Shells:                                       500
                             - Primitive Cartesian functions:                400
                             - Cartesian basis functions:                   1400
                             - Spherical basis functions:                   1300

  Maximum angular momentum of the orbital basis functions:                     2


 SCF PARAMETERS         Density guess:                                    ATOMIC
                        --------------------------------------------------------
                        max_scf:                                             160
                        max_scf_history:                                       0
                        max_diis:                                              4
                        --------------------------------------------------------
                        eps_scf:                                        5.00E-07
                        eps_scf_history:                                0.00E+00
                        eps_diis:                                       1.00E-01
                        eps_eigval:                                     1.00E-05
                        --------------------------------------------------------
                        level_shift [a.u.]:                             0.300000
                        --------------------------------------------------------
                        Outer loop SCF in use 
                        No variables optimised in outer loop
                        eps_scf                                         2.00E-07
                        max_scf                                               12
                        No outer loop optimization
                        step_size                                       5.00E-01

 MD_PAR| Molecular dynamics protocol (MD input parameters)
 MD_PAR| Ensemble type                                                       NVT
 MD_PAR| Number of time steps                                               2000
 MD_PAR| Time step [fs]                                                 0.250000
 MD_PAR| Temperature [K]                                             1500.000000
 MD_PAR| Temperature tolerance [K]                                      0.000000
 MD_PAR| Print MD information every                                    1 step(s)
 MD_PAR| File type   Print frequency [steps]                          File names
 MD_PAR| Coordinates         20  as40se60_melt-as40se60_melt-pos-1.xyz-pos-1.xyz
 MD_PAR| Velocities          20  as40se60_melt-as40se60_melt-vel-1.xyz-vel-1.xyz
 MD_PAR| Energies             1                             as40se60_melt-1.ener
 MD_PAR| Dump                20                          as40se60_melt-1.restart

 ROT| Rotational analysis information
 ROT| Principal axes and moments of inertia [a.u.]
 ROT|                           1                   2                   3
 ROT| Eigenvalues      1.75789868623E+09   1.79391159273E+09   1.91255940231E+09
 ROT|      x             -0.210013670247      0.719449238534     -0.662032515426
 ROT|      y              0.775282068462      0.535099603628      0.335568366386
 ROT|      z             -0.595677742266      0.442787993706      0.670154325510
 ROT| Number of rotovibrational vectors                                        6

 DOF| Calculation of degrees of freedom
 DOF| Number of atoms                                                        100
 DOF| Number of intramolecular constraints                                     0
 DOF| Number of intermolecular constraints                                     0
 DOF| Invariants (translations + rotations)                                    3
 DOF| Degrees of freedom                                                     297

 DOF| Restraints information
 DOF| Number of intramolecular restraints                                      0
 DOF| Number of intermolecular restraints                                      0

 THERMOSTAT| Thermostat information for PARTICLES
 THERMOSTAT| Type of thermostat            Canonical Sampling/Velocity Rescaling
 THERMOSTAT| CSVR time constant [fs]                                   25.000000
 THERMOSTAT| Initial kinetic energy                           0.000000000000E+00
 THERMOSTAT| End of thermostat information for PARTICLES

 MD_VEL| Velocities initialization
 MD_VEL| Initial temperature [K]                                     1500.000000
 MD_VEL| COM velocity            -0.0000000000    -0.0000000000    -0.0000000000

 Number of electrons:                                                        560
 Number of occupied orbitals:                                                280
 Number of molecular orbitals:                                              1300

 Number of orbital functions:                                               1300
 Number of independent orbital functions:                                   1300

 Extrapolation method: initial_guess


 SCF WAVEFUNCTION OPTIMIZATION

  ----------------------------------- OT ---------------------------------------
  Minimizer      : DIIS                : direct inversion
                                         in the iterative subspace
                                         using   7 DIIS vectors
                                         safer DIIS on
  Preconditioner : FULL_KINETIC        : inversion of T + eS
  Precond_solver : DEFAULT
  stepsize       :    0.15000000                  energy_gap     :    0.00100000
  eps_taylor     :   0.10000E-15                  max_taylor     :             4
  ----------------------------------- OT ---------------------------------------

  Step     Update method      Time    Convergence         Total energy    Change
  ------------------------------------------------------------------------------
     1 OT DIIS     0.15E+00    2.4     3.1252E-16      -774.6783190146 -7.75E+02

  *** SCF run converged in     1 steps ***


  Electronic density on regular grids:       -560.0000000000        0.0000000000
  Core density on regular grids:              559.9999999987       -0.0000000013
  Total charge density on r-space grids:       -0.0000000013
  Total charge density g-space grids:          -0.0000000013

  Overlap energy of the core charge distribution:               0.01878804220932
  Self energy of the core charge distribution:              -1737.24439639931302
  Core Hamiltonian energy:                                    421.01825002620262
  Hartree energy:                                             729.92480770944337
  Exchange-correlation energy:                               -187.67731701992182
  Dispersion energy:                                           -0.71845137320992

  Total energy:                                              -774.67831901458953

  outer SCF iter =    1 RMS gradient =   0.31E-15 energy =       -774.6783190146
  outer SCF loop converged in   1 iterations or    1 steps


 ENERGY| Total FORCE_EVAL ( QS ) energy [hartree]           -774.678319014589306

 MD_INI| MD initialization
 MD_INI| Potential energy [hartree]                          -0.774678319015E+03
 MD_INI| Kinetic energy [hartree]                             0.705408117717E+00
 MD_INI| Temperature [K]                                             1500.000000
 MD_INI| Cell volume [bohr^3]                                 1.884311149060E+04
 MD_INI| Cell volume [ang^3]                                  2.792261002858E+03
 MD_INI| Cell lengths [bohr]      2.66103675E+01  2.66103675E+01  2.66103675E+01
 MD_INI| Cell lengths [ang]       1.40816000E+01  1.40816000E+01  1.40816000E+01
 MD_INI| Cell angles [deg]        9.00000000E+01  9.00000000E+01  9.00000000E+01

 Number of electrons:                                                        560
 Number of occupied orbitals:                                                280
 Number of molecular orbitals:                                              1300

 Number of orbital functions:                                               1300
 Number of independent orbital functions:                                   1300

 Extrapolation method: ASPC


 SCF WAVEFUNCTION OPTIMIZATION

  ----------------------------------- OT ---------------------------------------
  Minimizer      : DIIS                : direct inversion
                                         in the iterative subspace
                                         using   7 DIIS vectors
                                         safer DIIS on
  Preconditioner : FULL_KINETIC        : inversion of T + eS
  Precond_solver : DEFAULT
  stepsize       :    0.15000000                  energy_gap     :    0.00100000
  eps_taylor     :   0.10000E-15                  max_taylor     :             4
  ----------------------------------- OT ---------------------------------------

  Step     Update method      Time    Convergence         Total energy    Change
  ------------------------------------------------------------------------------
     1 OT DIIS     0.15E+00    2.8     3.2047E-16      -774.7037121925 -7.75E+02

  *** SCF run converged in     1 steps ***


  Electronic density on regular grids:       -560.0000000000        0.0000000000
  Core density on regular grids:              559.9999999987       -0.0000000013
  Total charge density on r-space grids:       -0.0000000013
  Total charge density g-space grids:          -0.0000000013

  Overlap energy of the core charge distribution:               0.01858348644960
  Self energy of the core charge distribution:              -1737.24439639931302
  Core Hamiltonian energy:                                    421.00819039228327
  Hartree energy:                                             729.90924723196315
  Exchange-correlation energy:                               -187.67686213970512
  Dispersion energy:                                           -0.71847476421068

  Total energy:                                              -774.70371219253275

  outer SCF iter =    1 RMS gradient =   0.32E-15 energy =       -774.7037121925
  outer SCF loop converged in   1 iterations or    1 steps


 ENERGY| Total FORCE_EVAL ( QS ) energy [hartree]           -774.703712192532862

 MD| ***************************************************************************
 MD| Step number                                                               1
 MD| Time [fs]                                                          0.250000
 MD| Conserved quantity [hartree]                            -0.773984524199E+03
 MD| ---------------------------------------------------------------------------
 MD|                                          Instantaneous             Averages
 MD| CPU time per MD step [s]                     18.236762            18.236762
 MD| Energy drift per atom [K]          -0.366718633277E+02   0.000000000000E+00
 MD| Potential energy [hartree]         -0.774703712193E+03  -0.774703712193E+03
 MD| Kinetic energy [hartree]            0.715772085589E+00   0.715772085589E+00
 MD| Temperature [K]                            1522.038238          1522.038238
 MD| ***************************************************************************

 Number of electrons:                                                        560
 Number of occupied orbitals:                                                280
 Number of molecular orbitals:                                              1300

 Number of orbital functions:                                               1300
 Number of independent orbital functions:                                   1300

 Extrapolation method: ASPC


 SCF WAVEFUNCTION OPTIMIZATION

  ----------------------------------- OT ---------------------------------------
  Minimizer      : DIIS                : direct inversion
                                         in the iterative subspace
                                         using   7 DIIS vectors
                                         safer DIIS on
  Preconditioner : FULL_KINETIC        : inversion of T + eS
  Precond_solver : DEFAULT
  stepsize       :    0.15000000                  energy_gap     :    0.00100000
  eps_taylor     :   0.10000E-15                  max_taylor     :             4
  ----------------------------------- OT ---------------------------------------

  Step     Update method      Time    Convergence         Total energy    Change
  ------------------------------------------------------------------------------
     1 OT DIIS     0.15E+00    2.4     3.1906E-16      -774.7783624775 -7.75E+02

  *** SCF run converged in     1 steps ***


  Electronic density on regular grids:       -560.0000000000        0.0000000000
  Core density on regular grids:              559.9999999987       -0.0000000013
  Total charge density on r-space grids:       -0.0000000013
  Total charge density g-space grids:          -0.0000000013

  Overlap energy of the core charge distribution:               0.01812532709980
  Self energy of the core charge distribution:              -1737.24439639931302
  Core Hamiltonian energy:                                    420.96914935943221
  Hartree energy:                                             729.87016887588914
  Exchange-correlation energy:                               -187.67291425428130
  Dispersion energy:                                           -0.71849538628725

  Total energy:                                              -774.77836247746052

  outer SCF iter =    1 RMS gradient =   0.32E-15 energy =       -774.7783624775
  outer SCF loop converged in   1 iterations or    1 steps


 ENERGY| Total FORCE_EVAL ( QS ) energy [hartree]           -774.778362477460632

 MD| ***************************************************************************
 MD| Step number                                                               2
 MD| Time [fs]                                                          0.500000
 MD| Conserved quantity [hartree]                            -0.774003282536E+03
 MD| ---------------------------------------------------------------------------
 MD|                                          Instantaneous             Averages
 MD| CPU time per MD step [s]                      8.917006            13.576884
 MD| Energy drift per atom [K]          -0.959059372580E+02  -0.479529686290E+02
 MD| Potential energy [hartree]         -0.774778362477E+03  -0.774741037335E+03
 MD| Kinetic energy [hartree]            0.766937887895E+00   0.741354986742E+00
 MD| Temperature [K]                            1630.838663          1576.438451
 MD| ***************************************************************************

 Number of electrons:                                                        560
 Number of occupied orbitals:                                                280
 Number of molecular orbitals:                                              1300

 Number of orbital functions:                                               1300
 Number of independent orbital functions:                                   1300

 Extrapolation method: ASPC


 SCF WAVEFUNCTION OPTIMIZATION

  ----------------------------------- OT ---------------------------------------
  Minimizer      : DIIS                : direct inversion
                                         in the iterative subspace
                                         using   7 DIIS vectors
                                         safer DIIS on
  Preconditioner : FULL_KINETIC        : inversion of T + eS
  Precond_solver : DEFAULT
  stepsize       :    0.15000000                  energy_gap     :    0.00100000
  eps_taylor     :   0.10000E-15                  max_taylor     :             4
  ----------------------------------- OT ---------------------------------------

  Step     Update method      Time    Convergence         Total energy    Change
  ------------------------------------------------------------------------------
     1 OT DIIS     0.15E+00    2.4     3.1884E-16      -774.9011033376 -7.75E+02

  *** SCF run converged in     1 steps ***


  Electronic density on regular grids:       -560.0000000000        0.0000000000
  Core density on regular grids:              559.9999999987       -0.0000000013
  Total charge density on r-space grids:       -0.0000000013
  Total charge density g-space grids:          -0.0000000013

  Overlap energy of the core charge distribution:               0.01743341483790
  Self energy of the core charge distribution:              -1737.24439639931302
  Core Hamiltonian energy:                                    420.90160330048553
  Hartree energy:                                             729.80826649034566
  Exchange-correlation energy:                               -187.66549690203558
  Dispersion energy:                                           -0.71851324195649

  Total energy:                                              -774.90110333763619

  outer SCF iter =    1 RMS gradient =   0.32E-15 energy =       -774.9011033376
  outer SCF loop converged in   1 iterations or    1 steps


 ENERGY| Total FORCE_EVAL ( QS ) energy [hartree]           -774.901103337635959

 MD| ***************************************************************************
 MD| Step number                                                               3
 MD| Time [fs]                                                          0.750000
 MD| Conserved quantity [hartree]                            -0.774028872077E+03
 MD| ---------------------------------------------------------------------------
 MD|                                          Instantaneous             Averages
 MD| CPU time per MD step [s]                      9.000358            12.051375
 MD| Energy drift per atom [K]          -0.176711220940E+03  -0.908723860661E+02
 MD| Potential energy [hartree]         -0.774901103338E+03  -0.774794392669E+03
 MD| Kinetic energy [hartree]            0.863234550046E+00   0.781981507843E+00
 MD| Temperature [K]                            1835.606640          1662.827847
 MD| ***************************************************************************

 Number of electrons:                                                        560
 Number of occupied orbitals:                                                280
 Number of molecular orbitals:                                              1300

 Number of orbital functions:                                               1300
 Number of independent orbital functions:                                   1300

 Extrapolation method: ASPC


 SCF WAVEFUNCTION OPTIMIZATION

  ----------------------------------- OT ---------------------------------------
  Minimizer      : DIIS                : direct inversion
                                         in the iterative subspace
                                         using   7 DIIS vectors
                                         safer DIIS on
  Preconditioner : FULL_KINETIC        : inversion of T + eS
  Precond_solver : DEFAULT
  stepsize       :    0.15000000                  energy_gap     :    0.00100000
  eps_taylor     :   0.10000E-15                  max_taylor     :             4
  ----------------------------------- OT ---------------------------------------

  Step     Update method      Time    Convergence         Total energy    Change
  ------------------------------------------------------------------------------
     1 OT DIIS     0.15E+00    2.4     3.1381E-16      -775.0707012902 -7.75E+02

  *** SCF run converged in     1 steps ***


  Electronic density on regular grids:       -560.0000000000        0.0000000000
  Core density on regular grids:              559.9999999987       -0.0000000013
  Total charge density on r-space grids:       -0.0000000013
  Total charge density g-space grids:          -0.0000000013

  Overlap energy of the core charge distribution:               0.01653446458069
  Self energy of the core charge distribution:              -1737.24439639931302
  Core Hamiltonian energy:                                    420.80597285442803
  Hartree energy:                                             729.72432573459946
  Exchange-correlation energy:                               -187.65460952688707
  Dispersion energy:                                           -0.71852841760311

  Total energy:                                              -775.07070129019496

  outer SCF iter =    1 RMS gradient =   0.31E-15 energy =       -775.0707012902
  outer SCF loop converged in   1 iterations or    1 steps


 ENERGY| Total FORCE_EVAL ( QS ) energy [hartree]           -775.070701290195075

 MD| ***************************************************************************
 MD| Step number                                                               4
 MD| Time [fs]                                                          1.000000
 MD| Conserved quantity [hartree]                            -0.774060973972E+03
 MD| ---------------------------------------------------------------------------
 MD|                                          Instantaneous             Averages
 MD| CPU time per MD step [s]                      9.093479            11.311901
 MD| Energy drift per atom [K]          -0.278080864849E+03  -0.137674505762E+03
 MD| Potential energy [hartree]         -0.775070701290E+03  -0.774863469824E+03
 MD| Kinetic energy [hartree]            0.100024019723E+01   0.836546180189E+00
 MD| Temperature [K]                            2126.939368          1778.855727
 MD| ***************************************************************************

 Number of electrons:                                                        560
 Number of occupied orbitals:                                                280
 Number of molecular orbitals:                                              1300

 Number of orbital functions:                                               1300
 Number of independent orbital functions:                                   1300

 Extrapolation method: ASPC


 SCF WAVEFUNCTION OPTIMIZATION

  ----------------------------------- OT ---------------------------------------
  Minimizer      : DIIS                : direct inversion
                                         in the iterative subspace
                                         using   7 DIIS vectors
                                         safer DIIS on
  Preconditioner : FULL_KINETIC        : inversion of T + eS
  Precond_solver : DEFAULT
  stepsize       :    0.15000000                  energy_gap     :    0.00100000
  eps_taylor     :   0.10000E-15                  max_taylor     :             4
  ----------------------------------- OT ---------------------------------------

  Step     Update method      Time    Convergence         Total energy    Change
  ------------------------------------------------------------------------------
     1 OT DIIS     0.15E+00    2.4     3.1332E-16      -775.2846037717 -7.75E+02

  *** SCF run converged in     1 steps ***


  Electronic density on regular grids:       -560.0000000000        0.0000000000
  Core density on regular grids:              559.9999999987       -0.0000000013
  Total charge density on r-space grids:       -0.0000000013
  Total charge density g-space grids:          -0.0000000013

  Overlap energy of the core charge distribution:               0.01546705974808
  Self energy of the core charge distribution:              -1737.24439639931302
  Core Hamiltonian energy:                                    420.68333075486225
  Hartree energy:                                             729.61984340150900
  Exchange-correlation energy:                               -187.64030767511792
  Dispersion energy:                                           -0.71854091336377

  Total energy:                                              -775.28460377167539

  outer SCF iter =    1 RMS gradient =   0.31E-15 energy =       -775.2846037717
  outer SCF loop converged in   1 iterations or    1 steps


 ENERGY| Total FORCE_EVAL ( QS ) energy [hartree]           -775.284603771675620

 MD| ***************************************************************************
 MD| Step number                                                               5
 MD| Time [fs]                                                          1.250000
 MD| Conserved quantity [hartree]                            -0.774099012594E+03
 MD| ---------------------------------------------------------------------------
 MD|                                          Instantaneous             Averages
 MD| CPU time per MD step [s]                      9.245470            10.898615
 MD| Energy drift per atom [K]          -0.398197191542E+03  -0.189779042918E+03
 MD| Potential energy [hartree]         -0.775284603772E+03  -0.774947696614E+03
 MD| Kinetic energy [hartree]            0.116756490412E+01   0.902749924974E+00
 MD| Temperature [K]                            2482.743411          1919.633264
 MD| ***************************************************************************

 Number of electrons:                                                        560
 Number of occupied orbitals:                                                280
 Number of molecular orbitals:                                              1300

 Number of orbital functions:                                               1300
 Number of independent orbital functions:                                   1300

 Extrapolation method: ASPC


 SCF WAVEFUNCTION OPTIMIZATION

  ----------------------------------- OT ---------------------------------------
  Minimizer      : DIIS                : direct inversion
                                         in the iterative subspace
                                         using   7 DIIS vectors
                                         safer DIIS on
  Preconditioner : FULL_KINETIC        : inversion of T + eS
  Precond_solver : DEFAULT
  stepsize       :    0.15000000                  energy_gap     :    0.00100000
  eps_taylor     :   0.10000E-15                  max_taylor     :             4
  ----------------------------------- OT ---------------------------------------

  Step     Update method      Time    Convergence         Total energy    Change
  ------------------------------------------------------------------------------
     1 OT DIIS     0.15E+00    2.4     3.1369E-16      -775.5395779897 -7.76E+02

  *** SCF run converged in     1 steps ***


  Electronic density on regular grids:       -560.0000000000        0.0000000000
  Core density on regular grids:              559.9999999987       -0.0000000013
  Total charge density on r-space grids:       -0.0000000013
  Total charge density g-space grids:          -0.0000000013

  Overlap energy of the core charge distribution:               0.01427522027640
  Self energy of the core charge distribution:              -1737.24439639931302
  Core Hamiltonian energy:                                    420.53507815036653
  Hartree energy:                                             729.49668721510523
  Exchange-correlation energy:                               -187.62267142273808
  Dispersion energy:                                           -0.71855075339084

  Total energy:                                              -775.53957798969384

  outer SCF iter =    1 RMS gradient =   0.31E-15 energy =       -775.5395779897
  outer SCF loop converged in   1 iterations or    1 steps


 ENERGY| Total FORCE_EVAL ( QS ) energy [hartree]           -775.539577989693726

 MD| ***************************************************************************
 MD| Step number                                                               6
 MD| Time [fs]                                                          1.500000
 MD| Conserved quantity [hartree]                            -0.774142299795E+03
 MD| ---------------------------------------------------------------------------
 MD|                                          Instantaneous             Averages
 MD| CPU time per MD step [s]                      9.373079            10.644359
 MD| Energy drift per atom [K]          -0.534887195943E+03  -0.247297068422E+03
 MD| Potential energy [hartree]         -0.775539577990E+03  -0.775046343510E+03
 MD| Kinetic energy [hartree]            0.137089078621E+01   0.980773401848E+00
 MD| Temperature [K]                            2915.101383          2085.544617
 MD| ***************************************************************************

 Number of electrons:                                                        560
 Number of occupied orbitals:                                                280
 Number of molecular orbitals:                                              1300

 Number of orbital functions:                                               1300
 Number of independent orbital functions:                                   1300

 Extrapolation method: ASPC


 SCF WAVEFUNCTION OPTIMIZATION

  ----------------------------------- OT ---------------------------------------
  Minimizer      : DIIS                : direct inversion
                                         in the iterative subspace
                                         using   7 DIIS vectors
                                         safer DIIS on
  Preconditioner : FULL_KINETIC        : inversion of T + eS
  Precond_solver : DEFAULT
  stepsize       :    0.15000000                  energy_gap     :    0.00100000
  eps_taylor     :   0.10000E-15                  max_taylor     :             4
  ----------------------------------- OT ---------------------------------------

  Step     Update method      Time    Convergence         Total energy    Change
  ------------------------------------------------------------------------------
     1 OT DIIS     0.15E+00    2.5     3.0921E-16      -775.8325499146 -7.76E+02

  *** SCF run converged in     1 steps ***


  Electronic density on regular grids:       -560.0000000000        0.0000000000
  Core density on regular grids:              559.9999999987       -0.0000000013
  Total charge density on r-space grids:       -0.0000000013
  Total charge density g-space grids:          -0.0000000013

  Overlap energy of the core charge distribution:               0.01300192364529
  Self energy of the core charge distribution:              -1737.24439639931302
  Core Hamiltonian energy:                                    420.36247962358698
  Hartree energy:                                             729.35667579177607
  Exchange-correlation energy:                               -187.60175285105751
  Dispersion energy:                                           -0.71855800324797

  Total energy:                                              -775.83254991461013

  outer SCF iter =    1 RMS gradient =   0.31E-15 energy =       -775.8325499146
  outer SCF loop converged in   1 iterations or    1 steps


 ENERGY| Total FORCE_EVAL ( QS ) energy [hartree]           -775.832549914610013

 MD| ***************************************************************************
 MD| Step number                                                               7
 MD| Time [fs]                                                          1.750000
 MD| Conserved quantity [hartree]                            -0.774190180066E+03
 MD| ---------------------------------------------------------------------------
 MD|                                          Instantaneous             Averages
 MD| CPU time per MD step [s]                      9.273173            10.448475
 MD| Energy drift per atom [K]          -0.686080953339E+03  -0.309980480553E+03
 MD| Potential energy [hartree]         -0.775832549915E+03  -0.775158658711E+03
 MD| Kinetic energy [hartree]            0.162433515228E+01   0.107271079477E+01
 MD| Temperature [K]                            3454.032733          2281.042919
 MD| ***************************************************************************

 Number of electrons:                                                        560
 Number of occupied orbitals:                                                280
 Number of molecular orbitals:                                              1300

 Number of orbital functions:                                               1300
 Number of independent orbital functions:                                   1300

 Extrapolation method: ASPC


 SCF WAVEFUNCTION OPTIMIZATION

  ----------------------------------- OT ---------------------------------------
  Minimizer      : DIIS                : direct inversion
                                         in the iterative subspace
                                         using   7 DIIS vectors
                                         safer DIIS on
  Preconditioner : FULL_KINETIC        : inversion of T + eS
  Precond_solver : DEFAULT
  stepsize       :    0.15000000                  energy_gap     :    0.00100000
  eps_taylor     :   0.10000E-15                  max_taylor     :             4
  ----------------------------------- OT ---------------------------------------

  Step     Update method      Time    Convergence         Total energy    Change
  ------------------------------------------------------------------------------
     1 OT DIIS     0.15E+00    2.4     3.0950E-16      -776.1617030989 -7.76E+02

  *** SCF run converged in     1 steps ***


  Electronic density on regular grids:       -560.0000000000        0.0000000000
  Core density on regular grids:              559.9999999987       -0.0000000013
  Total charge density on r-space grids:       -0.0000000013
  Total charge density g-space grids:          -0.0000000013

  Overlap energy of the core charge distribution:               0.01168331319202
  Self energy of the core charge distribution:              -1737.24439639931302
  Core Hamiltonian energy:                                    420.16601294781157
  Hartree energy:                                             729.20105534186200
  Exchange-correlation energy:                               -187.57749553340162
  Dispersion energy:                                           -0.71856276902805

  Total energy:                                              -776.16170309887707

  outer SCF iter =    1 RMS gradient =   0.31E-15 energy =       -776.1617030989
  outer SCF loop converged in   1 iterations or    1 steps


 ENERGY| Total FORCE_EVAL ( QS ) energy [hartree]           -776.161703098877069

 MD| ***************************************************************************
 MD| Step number                                                               8
 MD| Time [fs]                                                          2.000000
 MD| Conserved quantity [hartree]                            -0.774242197260E+03
 MD| ---------------------------------------------------------------------------
 MD|                                          Instantaneous             Averages
 MD| CPU time per MD step [s]                      9.196619            10.291993
 MD| Energy drift per atom [K]          -0.850338065098E+03  -0.377525178621E+03
 MD| Potential energy [hartree]         -0.776161703099E+03  -0.775284039259E+03
 MD| Kinetic energy [hartree]            0.192865609357E+01   0.117970395712E+01
 MD| Temperature [K]                            4101.149487          2508.556240
 MD| ***************************************************************************

 Number of electrons:                                                        560
 Number of occupied orbitals:                                                280
 Number of molecular orbitals:                                              1300

 Number of orbital functions:                                               1300
 Number of independent orbital functions:                                   1300

 Extrapolation method: ASPC


 SCF WAVEFUNCTION OPTIMIZATION

  ----------------------------------- OT ---------------------------------------
  Minimizer      : DIIS                : direct inversion
                                         in the iterative subspace
                                         using   7 DIIS vectors
                                         safer DIIS on
  Preconditioner : FULL_KINETIC        : inversion of T + eS
  Precond_solver : DEFAULT
  stepsize       :    0.15000000                  energy_gap     :    0.00100000
  eps_taylor     :   0.10000E-15                  max_taylor     :             4
  ----------------------------------- OT ---------------------------------------

  Step     Update method      Time    Convergence         Total energy    Change
  ------------------------------------------------------------------------------
     1 OT DIIS     0.15E+00    2.4     3.0621E-16      -776.5232744317 -7.77E+02

  *** SCF run converged in     1 steps ***


  Electronic density on regular grids:       -560.0000000000        0.0000000000
  Core density on regular grids:              559.9999999987       -0.0000000013
  Total charge density on r-space grids:       -0.0000000013
  Total charge density g-space grids:          -0.0000000013

  Overlap energy of the core charge distribution:               0.01036061379925
  Self energy of the core charge distribution:              -1737.24439639931302
  Core Hamiltonian energy:                                    419.94727864509412
  Hartree energy:                                             729.03201647265394
  Exchange-correlation energy:                               -187.54996865127188
  Dispersion energy:                                           -0.71856511269571

  Total energy:                                              -776.52327443173317

  outer SCF iter =    1 RMS gradient =   0.31E-15 energy =       -776.5232744317
  outer SCF loop converged in   1 iterations or    1 steps


 ENERGY| Total FORCE_EVAL ( QS ) energy [hartree]           -776.523274431733057

 MD| ***************************************************************************
 MD| Step number                                                               9
 MD| Time [fs]                                                          2.250000
 MD| Conserved quantity [hartree]                            -0.774297576469E+03
 MD| ---------------------------------------------------------------------------
 MD|                                          Instantaneous             Averages
 MD| CPU time per MD step [s]                      9.200338            10.170698
 MD| Energy drift per atom [K]          -0.102521156861E+04  -0.449490333064E+03
 MD| Potential energy [hartree]         -0.776523274432E+03  -0.775421732056E+03
 MD| Kinetic energy [hartree]            0.222155886594E+01   0.129546561365E+01
 MD| Temperature [K]                            4723.986321          2754.715138
 MD| ***************************************************************************

 Number of electrons:                                                        560
 Number of occupied orbitals:                                                280
 Number of molecular orbitals:                                              1300

 Number of orbital functions:                                               1300
 Number of independent orbital functions:                                   1300

 Extrapolation method: ASPC


 SCF WAVEFUNCTION OPTIMIZATION

  ----------------------------------- OT ---------------------------------------
  Minimizer      : DIIS                : direct inversion
                                         in the iterative subspace
                                         using   7 DIIS vectors
                                         safer DIIS on
  Preconditioner : FULL_KINETIC        : inversion of T + eS
  Precond_solver : DEFAULT
  stepsize       :    0.15000000                  energy_gap     :    0.00100000
  eps_taylor     :   0.10000E-15                  max_taylor     :             4
  ----------------------------------- OT ---------------------------------------

  Step     Update method      Time    Convergence         Total energy    Change
  ------------------------------------------------------------------------------
     1 OT DIIS     0.15E+00    2.4     3.0810E-16      -776.9107490149 -7.77E+02

  *** SCF run converged in     1 steps ***


  Electronic density on regular grids:       -560.0000000000        0.0000000000
  Core density on regular grids:              559.9999999987       -0.0000000013
  Total charge density on r-space grids:       -0.0000000013
  Total charge density g-space grids:          -0.0000000013

  Overlap energy of the core charge distribution:               0.00907819337803
  Self energy of the core charge distribution:              -1737.24439639931302
  Core Hamiltonian energy:                                    419.70957972640178
  Hartree energy:                                             728.85301022986141
  Exchange-correlation energy:                               -187.51945567148698
  Dispersion energy:                                           -0.71856509370752

  Total energy:                                              -776.91074901486627

  outer SCF iter =    1 RMS gradient =   0.31E-15 energy =       -776.9107490149
  outer SCF loop converged in   1 iterations or    1 steps


 ENERGY| Total FORCE_EVAL ( QS ) energy [hartree]           -776.910749014866269

 MD| ***************************************************************************
 MD| Step number                                                              10
 MD| Time [fs]                                                          2.500000
 MD| Conserved quantity [hartree]                            -0.774355141465E+03
 MD| ---------------------------------------------------------------------------
 MD|                                          Instantaneous             Averages
 MD| CPU time per MD step [s]                      9.188607            10.072489
 MD| Energy drift per atom [K]          -0.120698723220E+04  -0.525240022978E+03
 MD| Potential energy [hartree]         -0.776910749015E+03  -0.775570633752E+03
 MD| Kinetic energy [hartree]            0.254228073337E+01   0.142014712562E+01
 MD| Temperature [K]                            5405.978474          3019.841472
 MD| ***************************************************************************

 Number of electrons:                                                        560
 Number of occupied orbitals:                                                280
 Number of molecular orbitals:                                              1300

 Number of orbital functions:                                               1300
 Number of independent orbital functions:                                   1300

 Extrapolation method: ASPC


 SCF WAVEFUNCTION OPTIMIZATION

  ----------------------------------- OT ---------------------------------------
  Minimizer      : DIIS                : direct inversion
                                         in the iterative subspace
                                         using   7 DIIS vectors
                                         safer DIIS on
  Preconditioner : FULL_KINETIC        : inversion of T + eS
  Precond_solver : DEFAULT
  stepsize       :    0.15000000                  energy_gap     :    0.00100000
  eps_taylor     :   0.10000E-15                  max_taylor     :             4
  ----------------------------------- OT ---------------------------------------

  Step     Update method      Time    Convergence         Total energy    Change
  ------------------------------------------------------------------------------
     1 OT DIIS     0.15E+00    2.4     3.0596E-16      -777.3215764536 -7.77E+02

  *** SCF run converged in     1 steps ***


  Electronic density on regular grids:       -560.0000000000        0.0000000000
  Core density on regular grids:              559.9999999987       -0.0000000013
  Total charge density on r-space grids:       -0.0000000013
  Total charge density g-space grids:          -0.0000000013

  Overlap energy of the core charge distribution:               0.00785919548629
  Self energy of the core charge distribution:              -1737.24439639931302
  Core Hamiltonian energy:                                    419.45385946662157
  Hartree energy:                                             728.66560706398275
  Exchange-correlation energy:                               -187.48594299189492
  Dispersion energy:                                           -0.71856278846416

  Total energy:                                              -777.32157645358154

  outer SCF iter =    1 RMS gradient =   0.31E-15 energy =       -777.3215764536
  outer SCF loop converged in   1 iterations or    1 steps


 ENERGY| Total FORCE_EVAL ( QS ) energy [hartree]           -777.321576453581429

 MD| ***************************************************************************
 MD| Step number                                                              11
 MD| Time [fs]                                                          2.750000
 MD| Conserved quantity [hartree]                            -0.774414336763E+03
 MD| ---------------------------------------------------------------------------
 MD|                                          Instantaneous             Averages
 MD| CPU time per MD step [s]                      9.230907             9.995982
 MD| Energy drift per atom [K]          -0.139391097574E+04  -0.604210109593E+03
 MD| Potential energy [hartree]         -0.777321576454E+03  -0.775729810361E+03
 MD| Kinetic energy [hartree]            0.286853961601E+01   0.155181917020E+01
 MD| Temperature [K]                            6099.744695          3299.832674
 MD| ***************************************************************************

 Number of electrons:                                                        560
 Number of occupied orbitals:                                                280
 Number of molecular orbitals:                                              1300

 Number of orbital functions:                                               1300
 Number of independent orbital functions:                                   1300

 Extrapolation method: ASPC


 SCF WAVEFUNCTION OPTIMIZATION

  ----------------------------------- OT ---------------------------------------
  Minimizer      : DIIS                : direct inversion
                                         in the iterative subspace
                                         using   7 DIIS vectors
                                         safer DIIS on
  Preconditioner : FULL_KINETIC        : inversion of T + eS
  Precond_solver : DEFAULT
  stepsize       :    0.15000000                  energy_gap     :    0.00100000
  eps_taylor     :   0.10000E-15                  max_taylor     :             4
  ----------------------------------- OT ---------------------------------------

  Step     Update method      Time    Convergence         Total energy    Change
  ------------------------------------------------------------------------------
     1 OT DIIS     0.15E+00    2.4     3.0846E-16      -777.7501980963 -7.78E+02

  *** SCF run converged in     1 steps ***


  Electronic density on regular grids:       -560.0000000000        0.0000000000
  Core density on regular grids:              559.9999999987       -0.0000000013
  Total charge density on r-space grids:       -0.0000000013
  Total charge density g-space grids:          -0.0000000013

  Overlap energy of the core charge distribution:               0.00672921452173
  Self energy of the core charge distribution:              -1737.24439639931302
  Core Hamiltonian energy:                                    419.18298276164012
  Hartree energy:                                             728.47271502814317
  Exchange-correlation energy:                               -187.44967042354244
  Dispersion energy:                                           -0.71855827771792

  Total energy:                                              -777.75019809626838

  outer SCF iter =    1 RMS gradient =   0.31E-15 energy =       -777.7501980963
  outer SCF loop converged in   1 iterations or    1 steps


 ENERGY| Total FORCE_EVAL ( QS ) energy [hartree]           -777.750198096268150

 MD| ***************************************************************************
 MD| Step number                                                              12
 MD| Time [fs]                                                          3.000000
 MD| Conserved quantity [hartree]                            -0.774474189040E+03
 MD| ---------------------------------------------------------------------------
 MD|                                          Instantaneous             Averages
 MD| CPU time per MD step [s]                      9.197592             9.929449
 MD| Energy drift per atom [K]          -0.158290929238E+04  -0.685768374825E+03
 MD| Potential energy [hartree]         -0.777750198096E+03  -0.775898176006E+03
 MD| Kinetic energy [hartree]            0.323840249138E+01   0.169236778030E+01
 MD| Temperature [K]                            6886.231693          3598.699259
 MD| ***************************************************************************

 Number of electrons:                                                        560
 Number of occupied orbitals:                                                280
 Number of molecular orbitals:                                              1300

 Number of orbital functions:                                               1300
 Number of independent orbital functions:                                   1300

 Extrapolation method: ASPC


 SCF WAVEFUNCTION OPTIMIZATION

  ----------------------------------- OT ---------------------------------------
  Minimizer      : DIIS                : direct inversion
                                         in the iterative subspace
                                         using   7 DIIS vectors
                                         safer DIIS on
  Preconditioner : FULL_KINETIC        : inversion of T + eS
  Precond_solver : DEFAULT
  stepsize       :    0.15000000                  energy_gap     :    0.00100000
  eps_taylor     :   0.10000E-15                  max_taylor     :             4
  ----------------------------------- OT ---------------------------------------

  Step     Update method      Time    Convergence         Total energy    Change
  ------------------------------------------------------------------------------
     1 OT DIIS     0.15E+00    2.4     3.0357E-16      -778.1940578248 -7.78E+02

  *** SCF run converged in     1 steps ***


  Electronic density on regular grids:       -560.0000000000        0.0000000000
  Core density on regular grids:              559.9999999987       -0.0000000013
  Total charge density on r-space grids:       -0.0000000013
  Total charge density g-space grids:          -0.0000000013

  Overlap energy of the core charge distribution:               0.00569858901358
  Self energy of the core charge distribution:              -1737.24439639931302
  Core Hamiltonian energy:                                    418.89801271450210
  Hartree energy:                                             728.27582569942297
  Exchange-correlation energy:                               -187.41064681839242
  Dispersion energy:                                           -0.71855161004568

  Total energy:                                              -778.19405782481260

  outer SCF iter =    1 RMS gradient =   0.30E-15 energy =       -778.1940578248
  outer SCF loop converged in   1 iterations or    1 steps


 ENERGY| Total FORCE_EVAL ( QS ) energy [hartree]           -778.194057824812830

 MD| ***************************************************************************
 MD| Step number                                                              13
 MD| Time [fs]                                                          3.250000
 MD| Conserved quantity [hartree]                            -0.774534178476E+03
 MD| ---------------------------------------------------------------------------
 MD|                                          Instantaneous             Averages
 MD| CPU time per MD step [s]                      9.192336             9.872748
 MD| Energy drift per atom [K]          -0.177234072335E+04  -0.769350863173E+03
 MD| Potential energy [hartree]         -0.778194057825E+03  -0.776074782300E+03
 MD| Kinetic energy [hartree]            0.359614482408E+01   0.183881216829E+01
 MD| Temperature [K]                            7646.945223          3910.102795
 MD| ***************************************************************************

 Number of electrons:                                                        560
 Number of occupied orbitals:                                                280
 Number of molecular orbitals:                                              1300

 Number of orbital functions:                                               1300
 Number of independent orbital functions:                                   1300

 Extrapolation method: ASPC


 SCF WAVEFUNCTION OPTIMIZATION

  ----------------------------------- OT ---------------------------------------
  Minimizer      : DIIS                : direct inversion
                                         in the iterative subspace
                                         using   7 DIIS vectors
                                         safer DIIS on
  Preconditioner : FULL_KINETIC        : inversion of T + eS
  Precond_solver : DEFAULT
  stepsize       :    0.15000000                  energy_gap     :    0.00100000
  eps_taylor     :   0.10000E-15                  max_taylor     :             4
  ----------------------------------- OT ---------------------------------------

  Step     Update method      Time    Convergence         Total energy    Change
  ------------------------------------------------------------------------------
     1 OT DIIS     0.15E+00    2.4     2.9489E-16      -778.6488698155 -7.79E+02

  *** SCF run converged in     1 steps ***


  Electronic density on regular grids:       -560.0000000000        0.0000000000
  Core density on regular grids:              559.9999999987       -0.0000000013
  Total charge density on r-space grids:       -0.0000000013
  Total charge density g-space grids:          -0.0000000013

  Overlap energy of the core charge distribution:               0.00477640794745
  Self energy of the core charge distribution:              -1737.24439639931302
  Core Hamiltonian energy:                                    418.60119142355978
  Hartree energy:                                             728.07714986234305
  Exchange-correlation energy:                               -187.36904826277174
  Dispersion energy:                                           -0.71854284724742

  Total energy:                                              -778.64886981548170

  outer SCF iter =    1 RMS gradient =   0.29E-15 energy =       -778.6488698155
  outer SCF loop converged in   1 iterations or    1 steps


 ENERGY| Total FORCE_EVAL ( QS ) energy [hartree]           -778.648869815481930

 MD| ***************************************************************************
 MD| Step number                                                              14
 MD| Time [fs]                                                          3.500000
 MD| Conserved quantity [hartree]                            -0.774593573636E+03
 MD| ---------------------------------------------------------------------------
 MD|                                          Instantaneous             Averages
 MD| CPU time per MD step [s]                      9.233906             9.827117
 MD| Energy drift per atom [K]          -0.195989557920E+04  -0.854389771460E+03
 MD| Potential energy [hartree]         -0.778648869815E+03  -0.776258645694E+03
 MD| Kinetic energy [hartree]            0.397812742063E+01   0.199162040060E+01
 MD| Temperature [K]                            8459.203943          4235.038591
 MD| ***************************************************************************

 Number of electrons:                                                        560
 Number of occupied orbitals:                                                280
 Number of molecular orbitals:                                              1300

 Number of orbital functions:                                               1300
 Number of independent orbital functions:                                   1300

 Extrapolation method: ASPC


 SCF WAVEFUNCTION OPTIMIZATION

  ----------------------------------- OT ---------------------------------------
  Minimizer      : DIIS                : direct inversion
                                         in the iterative subspace
                                         using   7 DIIS vectors
                                         safer DIIS on
  Preconditioner : FULL_KINETIC        : inversion of T + eS
  Precond_solver : DEFAULT
  stepsize       :    0.15000000                  energy_gap     :    0.00100000
  eps_taylor     :   0.10000E-15                  max_taylor     :             4
  ----------------------------------- OT ---------------------------------------

  Step     Update method      Time    Convergence         Total energy    Change
  ------------------------------------------------------------------------------
     1 OT DIIS     0.15E+00    2.4     2.9445E-16      -779.1107770952 -7.79E+02

  *** SCF run converged in     1 steps ***


  Electronic density on regular grids:       -560.0000000000        0.0000000000
  Core density on regular grids:              559.9999999987       -0.0000000013
  Total charge density on r-space grids:       -0.0000000013
  Total charge density g-space grids:          -0.0000000013

  Overlap energy of the core charge distribution:               0.00396521585329
  Self energy of the core charge distribution:              -1737.24439639931302
  Core Hamiltonian energy:                                    418.29460233761597
  Hartree energy:                                             727.87862926717764
  Exchange-correlation energy:                               -187.32504548548951
  Dispersion energy:                                           -0.71853203104979

  Total energy:                                              -779.11077709520555

  outer SCF iter =    1 RMS gradient =   0.29E-15 energy =       -779.1107770952
  outer SCF loop converged in   1 iterations or    1 steps


 ENERGY| Total FORCE_EVAL ( QS ) energy [hartree]           -779.110777095205549

 MD| ***************************************************************************
 MD| Step number                                                              15
 MD| Time [fs]                                                          3.750000
 MD| Conserved quantity [hartree]                            -0.774651742456E+03
 MD| ---------------------------------------------------------------------------
 MD|                                          Instantaneous             Averages
 MD| CPU time per MD step [s]                      9.182493             9.784142
 MD| Energy drift per atom [K]          -0.214357796668E+04  -0.940335651141E+03
 MD| Potential energy [hartree]         -0.779110777095E+03  -0.776448787787E+03
 MD| Kinetic energy [hartree]            0.434184729531E+01   0.214830219358E+01
 MD| Temperature [K]                            9232.628289          4568.211237
 MD| ***************************************************************************

 Number of electrons:                                                        560
 Number of occupied orbitals:                                                280
 Number of molecular orbitals:                                              1300

 Number of orbital functions:                                               1300
 Number of independent orbital functions:                                   1300

 Extrapolation method: ASPC


 SCF WAVEFUNCTION OPTIMIZATION

  ----------------------------------- OT ---------------------------------------
  Minimizer      : DIIS                : direct inversion
                                         in the iterative subspace
                                         using   7 DIIS vectors
                                         safer DIIS on
  Preconditioner : FULL_KINETIC        : inversion of T + eS
  Precond_solver : DEFAULT
  stepsize       :    0.15000000                  energy_gap     :    0.00100000
  eps_taylor     :   0.10000E-15                  max_taylor     :             4
  ----------------------------------- OT ---------------------------------------

  Step     Update method      Time    Convergence         Total energy    Change
  ------------------------------------------------------------------------------
     1 OT DIIS     0.15E+00    2.4     2.8772E-16      -779.5763388051 -7.80E+02

  *** SCF run converged in     1 steps ***


  Electronic density on regular grids:       -560.0000000000        0.0000000000
  Core density on regular grids:              559.9999999987       -0.0000000013
  Total charge density on r-space grids:       -0.0000000013
  Total charge density g-space grids:          -0.0000000013

  Overlap energy of the core charge distribution:               0.00326251627929
  Self energy of the core charge distribution:              -1737.24439639931302
  Core Hamiltonian energy:                                    417.98017524595366
  Hartree energy:                                             727.68194449332327
  Exchange-correlation energy:                               -187.27880547760006
  Dispersion energy:                                           -0.71851918376430

  Total energy:                                              -779.57633880512105

  outer SCF iter =    1 RMS gradient =   0.29E-15 energy =       -779.5763388051
  outer SCF loop converged in   1 iterations or    1 steps


 ENERGY| Total FORCE_EVAL ( QS ) energy [hartree]           -779.576338805121168

 MD| ***************************************************************************
 MD| Step number                                                              16
 MD| Time [fs]                                                          4.000000
 MD| Conserved quantity [hartree]                            -0.774708150141E+03
 MD| ---------------------------------------------------------------------------
 MD|                                          Instantaneous             Averages
 MD| CPU time per MD step [s]                      9.199879             9.747625
 MD| Energy drift per atom [K]          -0.232169913416E+04  -0.102667086883E+04
 MD| Potential energy [hartree]         -0.779576338805E+03  -0.776644259726E+03
 MD| Kinetic energy [hartree]            0.469380269961E+01   0.230739597520E+01
 MD| Temperature [K]                            9981.036329          4906.512806
 MD| ***************************************************************************

 Number of electrons:                                                        560
 Number of occupied orbitals:                                                280
 Number of molecular orbitals:                                              1300

 Number of orbital functions:                                               1300
 Number of independent orbital functions:                                   1300

 Extrapolation method: ASPC


 SCF WAVEFUNCTION OPTIMIZATION

  ----------------------------------- OT ---------------------------------------
  Minimizer      : DIIS                : direct inversion
                                         in the iterative subspace
                                         using   7 DIIS vectors
                                         safer DIIS on
  Preconditioner : FULL_KINETIC        : inversion of T + eS
  Precond_solver : DEFAULT
  stepsize       :    0.15000000                  energy_gap     :    0.00100000
  eps_taylor     :   0.10000E-15                  max_taylor     :             4
  ----------------------------------- OT ---------------------------------------

  Step     Update method      Time    Convergence         Total energy    Change
  ------------------------------------------------------------------------------
     1 OT DIIS     0.15E+00    2.4     2.8387E-16      -780.0414994506 -7.80E+02

  *** SCF run converged in     1 steps ***


  Electronic density on regular grids:       -560.0000000000        0.0000000000
  Core density on regular grids:              559.9999999987       -0.0000000013
  Total charge density on r-space grids:       -0.0000000013
  Total charge density g-space grids:          -0.0000000013

  Overlap energy of the core charge distribution:               0.00266340261788
  Self energy of the core charge distribution:              -1737.24439639931302
  Core Hamiltonian energy:                                    417.66039274054594
  Hartree energy:                                             727.48894449783052
  Exchange-correlation energy:                               -187.23059935592269
  Dispersion energy:                                           -0.71850433640767

  Total energy:                                              -780.04149945064921

  outer SCF iter =    1 RMS gradient =   0.28E-15 energy =       -780.0414994506
  outer SCF loop converged in   1 iterations or    1 steps


 ENERGY| Total FORCE_EVAL ( QS ) energy [hartree]           -780.041499450649326

 MD| ***************************************************************************
 MD| Step number                                                              17
 MD| Time [fs]                                                          4.250000
 MD| Conserved quantity [hartree]                            -0.774762238784E+03
 MD| ---------------------------------------------------------------------------
 MD|                                          Instantaneous             Averages
 MD| CPU time per MD step [s]                      9.218025             9.716472
 MD| Energy drift per atom [K]          -0.249249735644E+04  -0.111289595634E+04
 MD| Potential energy [hartree]         -0.780041499451E+03  -0.776844097356E+03
 MD| Kinetic energy [hartree]            0.504105603600E+01   0.246819950819E+01
 MD| Temperature [K]                           10719.445756          5248.450038
 MD| ***************************************************************************

 Number of electrons:                                                        560
 Number of occupied orbitals:                                                280
 Number of molecular orbitals:                                              1300

 Number of orbital functions:                                               1300
 Number of independent orbital functions:                                   1300

 Extrapolation method: ASPC


 SCF WAVEFUNCTION OPTIMIZATION

  ----------------------------------- OT ---------------------------------------
  Minimizer      : DIIS                : direct inversion
                                         in the iterative subspace
                                         using   7 DIIS vectors
                                         safer DIIS on
  Preconditioner : FULL_KINETIC        : inversion of T + eS
  Precond_solver : DEFAULT
  stepsize       :    0.15000000                  energy_gap     :    0.00100000
  eps_taylor     :   0.10000E-15                  max_taylor     :             4
  ----------------------------------- OT ---------------------------------------

  Step     Update method      Time    Convergence         Total energy    Change
  ------------------------------------------------------------------------------
     1 OT DIIS     0.15E+00    2.4     2.8263E-16      -780.5051823089 -7.81E+02

  *** SCF run converged in     1 steps ***


  Electronic density on regular grids:       -560.0000000000        0.0000000000
  Core density on regular grids:              559.9999999987       -0.0000000013
  Total charge density on r-space grids:       -0.0000000013
  Total charge density g-space grids:          -0.0000000013

  Overlap energy of the core charge distribution:               0.00215724707264
  Self energy of the core charge distribution:              -1737.24439639931302
  Core Hamiltonian energy:                                    417.33581003544015
  Hartree energy:                                             727.30016212762291
  Exchange-correlation energy:                               -187.18042790436581
  Dispersion energy:                                           -0.71848741532819

  Total energy:                                              -780.50518230887155

  outer SCF iter =    1 RMS gradient =   0.28E-15 energy =       -780.5051823089
  outer SCF loop converged in   1 iterations or    1 steps


 ENERGY| Total FORCE_EVAL ( QS ) energy [hartree]           -780.505182308871326

 MD| ***************************************************************************
 MD| Step number                                                              18
 MD| Time [fs]                                                          4.500000
 MD| Conserved quantity [hartree]                            -0.774813842575E+03
 MD| ---------------------------------------------------------------------------
 MD|                                          Instantaneous             Averages
 MD| CPU time per MD step [s]                      9.201085             9.687840
 MD| Energy drift per atom [K]          -0.265544904651E+04  -0.119859335024E+04
 MD| Potential energy [hartree]         -0.780505182309E+03  -0.777047490965E+03
 MD| Kinetic energy [hartree]            0.539614866416E+01   0.263086335019E+01
 MD| Temperature [K]                           11474.524879          5594.343085
 MD| ***************************************************************************

 Number of electrons:                                                        560
 Number of occupied orbitals:                                                280
 Number of molecular orbitals:                                              1300

 Number of orbital functions:                                               1300
 Number of independent orbital functions:                                   1300
