 DBCSR| CPU Multiplication driver                                           BLAS (U)
 DBCSR| Multrec recursion limit                                              512 (U)
 DBCSR| Multiplication stack size                                           1000 (D)
 DBCSR| Maximum elements for images                                    UNLIMITED (U)
 DBCSR| Multiplicative factor virtual images                                   1 (U)
 DBCSR| Use multiplication densification                                       T (D)
 DBCSR| Multiplication size stacks                                             3 (U)
 DBCSR| Use memory pool for CPU allocation                                     F (U)
 DBCSR| Number of 3D layers                                               SINGLE (U)
 DBCSR| Use MPI memory allocation                                              F (U)
 DBCSR| Use RMA algorithm                                                      F (U)
 DBCSR| Use Communication thread                                               T (U)
 DBCSR| Communication thread load                                             53 (D)
 DBCSR| MPI: My process id                                                     0
 DBCSR| MPI: Number of processes                                               1
 DBCSR| OMP: Current number of threads                                        10
 DBCSR| OMP: Max number of threads                                            10
 DBCSR| Split modifier for TAS multiplication algorithm                  1.0E+00 (U)


  **** **** ******  **  PROGRAM STARTED AT               2025-10-01 16:52:55.852
 ***** ** ***  *** **   PROGRAM STARTED ON                                   Mac
 **    ****   ******    PROGRAM STARTED BY                           jdmusgraves
 ***** **    ** ** **   PROGRAM PROCESS ID                                 80576
  **** **  *******  **  PROGRAM STARTED IN /Users/jdmusgraves/GitHub/local_shake
                                           down_kit

 CP2K| version string:                                       CP2K version 2025.1
 CP2K| source code revision number:                                             
 CP2K| cp2kflags: omp libint fftw3 libxc parallel scalapack no_statm_access     
 CP2K| is freely available from                            https://www.cp2k.org/
 CP2K| Program compiled at                                   2025-01-01 12:26:53
 CP2K| Program compiled on                                                      
 CP2K| Program compiled for                                                arm64
 CP2K| Data directory path      /opt/homebrew/Cellar/cp2k/2025.1/share/cp2k/data
 CP2K| Input file name                               inputs/md_as40se60_melt.inp

 GLOBAL| Force Environment number                                              1
 GLOBAL| Basis set file name                                        BASIS_MOLOPT
 GLOBAL| Potential file name                                      GTH_POTENTIALS
 GLOBAL| MM Potential file name                                     MM_POTENTIAL
 GLOBAL| Coordinate file name                       inputs/as40se60_100_seed.xyz
 GLOBAL| Method name                                                        CP2K
 GLOBAL| Project name                                              as40se60_melt
 GLOBAL| Run type                                                             MD
 GLOBAL| FFT library                                                       FFTW3
 GLOBAL| Diagonalization library                                       ScaLAPACK
 GLOBAL| DGEMM library                                                      BLAS
 GLOBAL| Orthonormality check for eigenvectors                          DISABLED
 GLOBAL| Matrix multiplication library                                 ScaLAPACK
 GLOBAL| All-to-all communication in single precision                          F
 GLOBAL| FFTs using library dependent lengths                                  F
 GLOBAL| Grid backend                                                       AUTO
 GLOBAL| Global print level                                                  LOW
 GLOBAL| MPI I/O enabled                                                       T
 GLOBAL| Total number of message passing processes                             1
 GLOBAL| Number of threads for this process                                   10
 GLOBAL| This output is from process                                           0
 GLOBAL| OpenMP stack size per thread (OMP_STACKSIZE)                    default
 GLOBAL| CPU model name                                                  UNKNOWN
 GLOBAL| CPUID                                                              2000

 MEMORY| system memory details [Kb]
 MEMORY|                        rank 0           min           max       average
 MEMORY| MemTotal                    0             0             0             0
 MEMORY| MemFree                     0             0             0             0
 MEMORY| Buffers                     0             0             0             0
 MEMORY| Cached                      0             0             0             0
 MEMORY| Slab                        0             0             0             0
 MEMORY| SReclaimable                0             0             0             0
 MEMORY| MemLikelyFree               0             0             0             0


 GENERATE|  Preliminary Number of Bonds generated:                             0
 GENERATE|  Achieved consistency in connectivity generation.

 *******************************************************************************
 *******************************************************************************
 **                                                                           **
 **     #####                         ##              ##                      **
 **    ##   ##            ##          ##              ##                      **
 **   ##     ##                       ##            ######                    **
 **   ##     ##  ##   ##  ##   #####  ##  ##   ####   ##    #####    #####    **
 **   ##     ##  ##   ##  ##  ##      ## ##   ##      ##   ##   ##  ##   ##   **
 **   ##  ## ##  ##   ##  ##  ##      ####     ###    ##   ######   ######    **
 **    ##  ###   ##   ##  ##  ##      ## ##      ##   ##   ##       ##        **
 **     #######   #####   ##   #####  ##  ##  ####    ##    #####   ##        **
 **           ##                                                    ##        **
 **                                                                           **
 **                                                ... make the atoms dance   **
 **                                                                           **
 **            Copyright (C) by CP2K developers group (2000-2025)             **
 **                      J. Chem. Phys. 152, 194103 (2020)                    **
 **                                                                           **
 *******************************************************************************


 TOTAL NUMBERS AND MAXIMUM NUMBERS

  Total number of            - Atomic kinds:                                   2
                             - Atoms:                                        100
                             - Shell sets:                                   100
                             - Shells:                                       500
                             - Primitive Cartesian functions:                400
                             - Cartesian basis functions:                   1400
                             - Spherical basis functions:                   1300

  Maximum angular momentum of the orbital basis functions:                     2


 SCF PARAMETERS         Density guess:                                    ATOMIC
                        --------------------------------------------------------
                        max_scf:                                             160
                        max_scf_history:                                       0
                        max_diis:                                              4
                        --------------------------------------------------------
                        eps_scf:                                        5.00E-07
                        eps_scf_history:                                0.00E+00
                        eps_diis:                                       1.00E-01
                        eps_eigval:                                     1.00E-05
                        --------------------------------------------------------
                        level_shift [a.u.]:                             0.300000
                        --------------------------------------------------------
                        Outer loop SCF in use 
                        No variables optimised in outer loop
                        eps_scf                                         2.00E-07
                        max_scf                                               12
                        No outer loop optimization
                        step_size                                       5.00E-01

 MD_PAR| Molecular dynamics protocol (MD input parameters)
 MD_PAR| Ensemble type                                                       NVT
 MD_PAR| Number of time steps                                               2000
 MD_PAR| Time step [fs]                                                 0.250000
 MD_PAR| Temperature [K]                                             1500.000000
 MD_PAR| Temperature tolerance [K]                                      0.000000
 MD_PAR| Print MD information every                                    1 step(s)
 MD_PAR| File type   Print frequency [steps]                          File names
 MD_PAR| Coordinates         20  as40se60_melt-as40se60_melt-pos-1.xyz-pos-1.xyz
 MD_PAR| Velocities          20  as40se60_melt-as40se60_melt-vel-1.xyz-vel-1.xyz
 MD_PAR| Energies             1                             as40se60_melt-1.ener
 MD_PAR| Dump                20                          as40se60_melt-1.restart

 ROT| Rotational analysis information
 ROT| Principal axes and moments of inertia [a.u.]
 ROT|                           1                   2                   3
 ROT| Eigenvalues      1.75789868623E+09   1.79391159273E+09   1.91255940231E+09
 ROT|      x             -0.210013670247      0.719449238534     -0.662032515426
 ROT|      y              0.775282068462      0.535099603628      0.335568366386
 ROT|      z             -0.595677742266      0.442787993706      0.670154325510
 ROT| Number of rotovibrational vectors                                        6

 DOF| Calculation of degrees of freedom
 DOF| Number of atoms                                                        100
 DOF| Number of intramolecular constraints                                     0
 DOF| Number of intermolecular constraints                                     0
 DOF| Invariants (translations + rotations)                                    0
 DOF| Degrees of freedom                                                     300

 DOF| Restraints information
 DOF| Number of intramolecular restraints                                      0
 DOF| Number of intermolecular restraints                                      0

 THERMOSTAT| Thermostat information for PARTICLES
 THERMOSTAT| Type of thermostat            Canonical Sampling/Velocity Rescaling
 THERMOSTAT| CSVR time constant [fs]                                   25.000000
 THERMOSTAT| Initial kinetic energy                           0.000000000000E+00
 THERMOSTAT| End of thermostat information for PARTICLES

 MD_VEL| Velocities initialization
 MD_VEL| Initial temperature [K]                                     1500.000000
 MD_VEL| COM velocity            -0.0000000000    -0.0000000000    -0.0000000000

 Number of electrons:                                                        560
 Number of occupied orbitals:                                                280
 Number of molecular orbitals:                                              1300

 Number of orbital functions:                                               1300
 Number of independent orbital functions:                                   1300

 Extrapolation method: initial_guess


 SCF WAVEFUNCTION OPTIMIZATION

  ----------------------------------- OT ---------------------------------------
  Minimizer      : DIIS                : direct inversion
                                         in the iterative subspace
                                         using   7 DIIS vectors
                                         safer DIIS on
  Preconditioner : FULL_ALL            : diagonalization, state selective
  Precond_solver : DEFAULT
  stepsize       :    0.15000000                  energy_gap     :    0.00100000
  eps_taylor     :   0.10000E-15                  max_taylor     :             4
  ----------------------------------- OT ---------------------------------------

  Step     Update method      Time    Convergence         Total energy    Change
  ------------------------------------------------------------------------------
     1 OT DIIS     0.15E+00   13.7     5.2960E-11      -774.6783190101 -7.75E+02

  *** SCF run converged in     1 steps ***


  Electronic density on regular grids:       -560.0000000000        0.0000000000
  Core density on regular grids:              559.9999999987       -0.0000000013
  Total charge density on r-space grids:       -0.0000000013
  Total charge density g-space grids:          -0.0000000013

  Overlap energy of the core charge distribution:               0.01878804220932
  Self energy of the core charge distribution:              -1737.24439639931302
  Core Hamiltonian energy:                                    421.01825002845595
  Hartree energy:                                             729.92480771146563
  Exchange-correlation energy:                               -187.67731701967932
  Dispersion energy:                                           -0.71845137320990

  Total energy:                                              -774.67831901007139

  outer SCF iter =    1 RMS gradient =   0.53E-10 energy =       -774.6783190101
  outer SCF loop converged in   1 iterations or    1 steps


 ENERGY| Total FORCE_EVAL ( QS ) energy [hartree]            484.483138178059619

 MD_INI| MD initialization
 MD_INI| Potential energy [hartree]                           0.484483138178E+03
 MD_INI| Kinetic energy [hartree]                             0.712533452240E+00
 MD_INI| Temperature [K]                                             1500.000000
 MD_INI| Cell volume [bohr^3]                                 1.884311149060E+04
 MD_INI| Cell volume [ang^3]                                  2.792261002858E+03
 MD_INI| Cell lengths [bohr]      2.66103675E+01  2.66103675E+01  2.66103675E+01
 MD_INI| Cell lengths [ang]       1.40816000E+01  1.40816000E+01  1.40816000E+01
 MD_INI| Cell angles [deg]        9.00000000E+01  9.00000000E+01  9.00000000E+01

 Number of electrons:                                                        560
 Number of occupied orbitals:                                                280
 Number of molecular orbitals:                                              1300

 Number of orbital functions:                                               1300
 Number of independent orbital functions:                                   1300

 Extrapolation method: ASPC


 SCF WAVEFUNCTION OPTIMIZATION

  ----------------------------------- OT ---------------------------------------
  Minimizer      : DIIS                : direct inversion
                                         in the iterative subspace
                                         using   7 DIIS vectors
                                         safer DIIS on
  Preconditioner : FULL_ALL            : diagonalization, state selective
  Precond_solver : DEFAULT
  stepsize       :    0.15000000                  energy_gap     :    0.00100000
  eps_taylor     :   0.10000E-15                  max_taylor     :             4
  ----------------------------------- OT ---------------------------------------

  Step     Update method      Time    Convergence         Total energy    Change
  ------------------------------------------------------------------------------
     1 OT DIIS     0.15E+00   13.1     2.2957E-14       484.8444512482  4.85E+02

  *** SCF run converged in     1 steps ***


  Electronic density on regular grids:       -560.0000000000        0.0000000000
  Core density on regular grids:              559.9999999987       -0.0000000013
  Total charge density on r-space grids:       -0.0000000013
  Total charge density g-space grids:          -0.0000000013

  Overlap energy of the core charge distribution:               0.02381864460380
  Self energy of the core charge distribution:              -1737.24439639931302
  Core Hamiltonian energy:                                    540.03617609841695
  Hartree energy:                                            1906.17341169488236
  Exchange-correlation energy:                               -223.42607634281646
  Dispersion energy:                                           -0.71848244758753

  Total energy:                                               484.84445124818609

  outer SCF iter =    1 RMS gradient =   0.23E-13 energy =        484.8444512482
  outer SCF loop converged in   1 iterations or    1 steps


 ENERGY| Total FORCE_EVAL ( QS ) energy [hartree]           3612.485853566090100

 MD| ***************************************************************************
 MD| Step number                                                               1
 MD| Time [fs]                                                          0.250000
 MD| Conserved quantity [hartree]                             0.362481128679E+04
 MD| ---------------------------------------------------------------------------
 MD|                                          Instantaneous             Averages
 MD| CPU time per MD step [s]                     48.316285            48.316285
 MD| Energy drift per atom [K]           0.991411015429E+07   0.000000000000E+00
 MD| Potential energy [hartree]          0.361248585357E+04   0.361248585357E+04
 MD| Kinetic energy [hartree]            0.122519286127E+02   0.122519286127E+02
 MD| Temperature [K]                           25792.322959         25792.322959
 MD| ***************************************************************************

 Number of electrons:                                                        560
 Number of occupied orbitals:                                                280
 Number of molecular orbitals:                                              1300

 Number of orbital functions:                                               1300
 Number of independent orbital functions:                                   1300

 Extrapolation method: ASPC


 SCF WAVEFUNCTION OPTIMIZATION

  ----------------------------------- OT ---------------------------------------
  Minimizer      : DIIS                : direct inversion
                                         in the iterative subspace
                                         using   7 DIIS vectors
                                         safer DIIS on
  Preconditioner : FULL_ALL            : diagonalization, state selective
  Precond_solver : DEFAULT
  stepsize       :    0.15000000                  energy_gap     :    0.00100000
  eps_taylor     :   0.10000E-15                  max_taylor     :             4
  ----------------------------------- OT ---------------------------------------

  Step     Update method      Time    Convergence         Total energy    Change
  ------------------------------------------------------------------------------
     1 OT DIIS     0.15E+00   14.7     1.3299E-13      3623.6434811822  3.62E+03

  *** SCF run converged in     1 steps ***


  Electronic density on regular grids:       -560.0000000000        0.0000000000
  Core density on regular grids:              559.9999999987       -0.0000000013
  Total charge density on r-space grids:       -0.0000000013
  Total charge density g-space grids:          -0.0000000013

  Overlap energy of the core charge distribution:               0.02933384750364
  Self energy of the core charge distribution:              -1737.24439639931302
  Core Hamiltonian energy:                                    691.90407545302446
  Hartree energy:                                            4919.33033802731825
  Exchange-correlation energy:                               -249.65781249009723
  Dispersion energy:                                           -0.71805725627057

  Total energy:                                              3623.64348118216594

  outer SCF iter =    1 RMS gradient =   0.13E-12 energy =       3623.6434811822
  outer SCF loop converged in   1 iterations or    1 steps


 ENERGY| Total FORCE_EVAL ( QS ) energy [hartree]           3725.738095514153429

 MD| ***************************************************************************
 MD| Step number                                                               2
 MD| Time [fs]                                                          0.500000
 MD| Conserved quantity [hartree]                             0.406820306324E+04
 MD| ---------------------------------------------------------------------------
 MD|                                          Instantaneous             Averages
 MD| CPU time per MD step [s]                     25.203837            36.760061
 MD| Energy drift per atom [K]           0.113142289752E+08   0.565711448760E+07
 MD| Potential energy [hartree]          0.372573809551E+04   0.366911197454E+04
 MD| Kinetic energy [hartree]            0.340420646571E+03   0.176336287592E+03
 MD| Temperature [K]                          716641.398732        371216.860846
 MD| ***************************************************************************

 Number of electrons:                                                        560
 Number of occupied orbitals:                                                280
 Number of molecular orbitals:                                              1300

 Number of orbital functions:                                               1300
 Number of independent orbital functions:                                   1300

 Extrapolation method: ASPC


 SCF WAVEFUNCTION OPTIMIZATION

  ----------------------------------- OT ---------------------------------------
  Minimizer      : DIIS                : direct inversion
                                         in the iterative subspace
                                         using   7 DIIS vectors
                                         safer DIIS on
  Preconditioner : FULL_ALL            : diagonalization, state selective
  Precond_solver : DEFAULT
  stepsize       :    0.15000000                  energy_gap     :    0.00100000
  eps_taylor     :   0.10000E-15                  max_taylor     :             4
  ----------------------------------- OT ---------------------------------------

  Step     Update method      Time    Convergence         Total energy    Change
  ------------------------------------------------------------------------------
     1 OT DIIS     0.15E+00   12.4     3.6552E-14      3784.8056059675  3.78E+03

  *** SCF run converged in     1 steps ***


  Electronic density on regular grids:       -559.9999999999        0.0000000001
  Core density on regular grids:              559.9999999987       -0.0000000013
  Total charge density on r-space grids:       -0.0000000012
  Total charge density g-space grids:          -0.0000000012

  Overlap energy of the core charge distribution:               0.98181461596330
  Self energy of the core charge distribution:              -1737.24439639931302
  Core Hamiltonian energy:                                    978.01681430931455
  Hartree energy:                                            4824.72469770234875
  Exchange-correlation energy:                               -280.95538950260618
  Dispersion energy:                                           -0.71793475817046

  Total energy:                                              3784.80560596753685

  outer SCF iter =    1 RMS gradient =   0.37E-13 energy =       3784.8056059675
  outer SCF loop converged in   1 iterations or    1 steps


 ENERGY| Total FORCE_EVAL ( QS ) energy [hartree]           3835.110551372309146

 MD| ***************************************************************************
 MD| Step number                                                               3
 MD| Time [fs]                                                          0.750000
 MD| Conserved quantity [hartree]                             0.502665154400E+04
 MD| ---------------------------------------------------------------------------
 MD|                                          Instantaneous             Averages
 MD| CPU time per MD step [s]                     22.962005            32.160709
 MD| Energy drift per atom [K]           0.143407662906E+08   0.855166508861E+07
 MD| Potential energy [hartree]          0.383511055137E+04   0.372444483348E+04
 MD| Kinetic energy [hartree]            0.118154974740E+04   0.511407440862E+03
 MD| Temperature [K]                         2487356.369770       1076596.697154
 MD| ***************************************************************************

 Number of electrons:                                                        560
 Number of occupied orbitals:                                                280
 Number of molecular orbitals:                                              1300

 Number of orbital functions:                                               1300
 Number of independent orbital functions:                                   1300

 Extrapolation method: ASPC


 SCF WAVEFUNCTION OPTIMIZATION

  ----------------------------------- OT ---------------------------------------
  Minimizer      : DIIS                : direct inversion
                                         in the iterative subspace
                                         using   7 DIIS vectors
                                         safer DIIS on
  Preconditioner : FULL_ALL            : diagonalization, state selective
  Precond_solver : DEFAULT
  stepsize       :    0.15000000                  energy_gap     :    0.00100000
  eps_taylor     :   0.10000E-15                  max_taylor     :             4
  ----------------------------------- OT ---------------------------------------

  Step     Update method      Time    Convergence         Total energy    Change
  ------------------------------------------------------------------------------
     1 OT DIIS     0.15E+00   15.1     1.0486E-12      3918.3563305183  3.92E+03

  *** SCF run converged in     1 steps ***


  Electronic density on regular grids:       -560.0000000000        0.0000000000
  Core density on regular grids:              559.9999999987       -0.0000000013
  Total charge density on r-space grids:       -0.0000000013
  Total charge density g-space grids:          -0.0000000013

  Overlap energy of the core charge distribution:              10.04197980582810
  Self energy of the core charge distribution:              -1737.24439639931302
  Core Hamiltonian energy:                                    721.44236668118629
  Hartree energy:                                            5179.42991388805149
  Exchange-correlation energy:                               -254.59626573265859
  Dispersion energy:                                           -0.71726772477640

  Total energy:                                              3918.35633051831746
