 DBCSR| CPU Multiplication driver                                           BLAS (U)
 DBCSR| Multrec recursion limit                                              512 (U)
 DBCSR| Multiplication stack size                                           1000 (D)
 DBCSR| Maximum elements for images                                    UNLIMITED (U)
 DBCSR| Multiplicative factor virtual images                                   1 (U)
 DBCSR| Use multiplication densification                                       T (D)
 DBCSR| Multiplication size stacks                                             3 (U)
 DBCSR| Use memory pool for CPU allocation                                     F (U)
 DBCSR| Number of 3D layers                                               SINGLE (U)
 DBCSR| Use MPI memory allocation                                              F (U)
 DBCSR| Use RMA algorithm                                                      F (U)
 DBCSR| Use Communication thread                                               T (U)
 DBCSR| Communication thread load                                             53 (D)
 DBCSR| MPI: My process id                                                     0
 DBCSR| MPI: Number of processes                                               1
 DBCSR| OMP: Current number of threads                                        10
 DBCSR| OMP: Max number of threads                                            10
 DBCSR| Split modifier for TAS multiplication algorithm                  1.0E+00 (U)


  **** **** ******  **  PROGRAM STARTED AT               2025-10-01 15:16:37.880
 ***** ** ***  *** **   PROGRAM STARTED ON                                   Mac
 **    ****   ******    PROGRAM STARTED BY                           jdmusgraves
 ***** **    ** ** **   PROGRAM PROCESS ID                                 74100
  **** **  *******  **  PROGRAM STARTED IN /Users/jdmusgraves/GitHub/local_shake
                                           down_kit

 CP2K| version string:                                       CP2K version 2025.1
 CP2K| source code revision number:                                             
 CP2K| cp2kflags: omp libint fftw3 libxc parallel scalapack no_statm_access     
 CP2K| is freely available from                            https://www.cp2k.org/
 CP2K| Program compiled at                                   2025-01-01 12:26:53
 CP2K| Program compiled on                                                      
 CP2K| Program compiled for                                                arm64
 CP2K| Data directory path      /opt/homebrew/Cellar/cp2k/2025.1/share/cp2k/data
 CP2K| Input file name                               inputs/md_as40se60_melt.inp

 GLOBAL| Force Environment number                                              1
 GLOBAL| Basis set file name                                        BASIS_MOLOPT
 GLOBAL| Potential file name                                      GTH_POTENTIALS
 GLOBAL| MM Potential file name                                     MM_POTENTIAL
 GLOBAL| Coordinate file name                       inputs/as40se60_100_seed.xyz
 GLOBAL| Method name                                                        CP2K
 GLOBAL| Project name                                              as40se60_melt
 GLOBAL| Run type                                                             MD
 GLOBAL| FFT library                                                       FFTW3
 GLOBAL| Diagonalization library                                       ScaLAPACK
 GLOBAL| DGEMM library                                                      BLAS
 GLOBAL| Orthonormality check for eigenvectors                          DISABLED
 GLOBAL| Matrix multiplication library                                 ScaLAPACK
 GLOBAL| All-to-all communication in single precision                          F
 GLOBAL| FFTs using library dependent lengths                                  F
 GLOBAL| Grid backend                                                       AUTO
 GLOBAL| Global print level                                                  LOW
 GLOBAL| MPI I/O enabled                                                       T
 GLOBAL| Total number of message passing processes                             1
 GLOBAL| Number of threads for this process                                   10
 GLOBAL| This output is from process                                           0
 GLOBAL| OpenMP stack size per thread (OMP_STACKSIZE)                    default
 GLOBAL| CPU model name                                                  UNKNOWN
 GLOBAL| CPUID                                                              2000

 MEMORY| system memory details [Kb]
 MEMORY|                        rank 0           min           max       average
 MEMORY| MemTotal                    0             0             0             0
 MEMORY| MemFree                     0             0             0             0
 MEMORY| Buffers                     0             0             0             0
 MEMORY| Cached                      0             0             0             0
 MEMORY| Slab                        0             0             0             0
 MEMORY| SReclaimable                0             0             0             0
 MEMORY| MemLikelyFree               0             0             0             0


 GENERATE|  Preliminary Number of Bonds generated:                             0
 GENERATE|  Achieved consistency in connectivity generation.

 *******************************************************************************
 *******************************************************************************
 **                                                                           **
 **     #####                         ##              ##                      **
 **    ##   ##            ##          ##              ##                      **
 **   ##     ##                       ##            ######                    **
 **   ##     ##  ##   ##  ##   #####  ##  ##   ####   ##    #####    #####    **
 **   ##     ##  ##   ##  ##  ##      ## ##   ##      ##   ##   ##  ##   ##   **
 **   ##  ## ##  ##   ##  ##  ##      ####     ###    ##   ######   ######    **
 **    ##  ###   ##   ##  ##  ##      ## ##      ##   ##   ##       ##        **
 **     #######   #####   ##   #####  ##  ##  ####    ##    #####   ##        **
 **           ##                                                    ##        **
 **                                                                           **
 **                                                ... make the atoms dance   **
 **                                                                           **
 **            Copyright (C) by CP2K developers group (2000-2025)             **
 **                      J. Chem. Phys. 152, 194103 (2020)                    **
 **                                                                           **
 *******************************************************************************


 TOTAL NUMBERS AND MAXIMUM NUMBERS

  Total number of            - Atomic kinds:                                   2
                             - Atoms:                                        100
                             - Shell sets:                                   100
                             - Shells:                                       500
                             - Primitive Cartesian functions:                400
                             - Cartesian basis functions:                   1400
                             - Spherical basis functions:                   1300

  Maximum angular momentum of the orbital basis functions:                     2


 SCF PARAMETERS         Density guess:                                    ATOMIC
                        --------------------------------------------------------
                        max_scf:                                              25
                        max_scf_history:                                       0
                        max_diis:                                              4
                        --------------------------------------------------------
                        eps_scf:                                        5.00E-05
                        eps_scf_history:                                0.00E+00
                        eps_diis:                                       1.00E-01
                        eps_eigval:                                     1.00E-05
                        --------------------------------------------------------
                        level_shift [a.u.]:                             0.000000
                        added MOs                                       200    0
                        --------------------------------------------------------
                        Mixing method:                            BROYDEN_MIXING
                                                charge density mixing in g-space
                        --------------------------------------------------------
                        Smear method:                                FERMI_DIRAC
                        Electronic temperature [K]:                       4000.0
                        Electronic temperature [a.u.]:                  1.27E-02
                        Accuracy threshold:                             1.00E-10
                        --------------------------------------------------------
                        No outer SCF

 MD_PAR| Molecular dynamics protocol (MD input parameters)
 MD_PAR| Ensemble type                                                       NVT
 MD_PAR| Number of time steps                                                400
 MD_PAR| Time step [fs]                                                 0.500000
 MD_PAR| Temperature [K]                                             1500.000000
 MD_PAR| Temperature tolerance [K]                                      0.000000
 MD_PAR| Print MD information every                                    1 step(s)
 MD_PAR| File type   Print frequency [steps]                          File names
 MD_PAR| Coordinates         20  as40se60_melt-as40se60_melt-pos-1.xyz-pos-1.xyz
 MD_PAR| Velocities          20  as40se60_melt-as40se60_melt-vel-1.xyz-vel-1.xyz
 MD_PAR| Energies             1                             as40se60_melt-1.ener
 MD_PAR| Dump                20                          as40se60_melt-1.restart

 ROT| Rotational analysis information
 ROT| Principal axes and moments of inertia [a.u.]
 ROT|                           1                   2                   3
 ROT| Eigenvalues      1.75789868623E+09   1.79391159273E+09   1.91255940231E+09
 ROT|      x             -0.210013670247      0.719449238534     -0.662032515426
 ROT|      y              0.775282068462      0.535099603628      0.335568366386
 ROT|      z             -0.595677742266      0.442787993706      0.670154325510
 ROT| Number of rotovibrational vectors                                        6

 DOF| Calculation of degrees of freedom
 DOF| Number of atoms                                                        100
 DOF| Number of intramolecular constraints                                     0
 DOF| Number of intermolecular constraints                                     0
 DOF| Invariants (translations + rotations)                                    3
 DOF| Degrees of freedom                                                     297

 DOF| Restraints information
 DOF| Number of intramolecular restraints                                      0
 DOF| Number of intermolecular restraints                                      0

 THERMOSTAT| Thermostat information for PARTICLES
 THERMOSTAT| Type of thermostat            Canonical Sampling/Velocity Rescaling
 THERMOSTAT| CSVR time constant [fs]                                  200.000000
 THERMOSTAT| Initial kinetic energy                           0.000000000000E+00
 THERMOSTAT| End of thermostat information for PARTICLES

 MD_VEL| Velocities initialization
 MD_VEL| Initial temperature [K]                                     1500.000000
 MD_VEL| COM velocity            -0.0000000000    -0.0000000000    -0.0000000000

 Number of electrons:                                                        560
 Number of occupied orbitals:                                                280
 Number of molecular orbitals:                                               480

 Number of orbital functions:                                               1300
 Number of independent orbital functions:                                   1300

 Extrapolation method: initial_guess


 SCF WAVEFUNCTION OPTIMIZATION

  Step     Update method      Time    Convergence         Total energy    Change
  ------------------------------------------------------------------------------
     1 NoMix/Diag. 0.20E+00    1.5     0.70996659      -823.7693832245 -8.24E+02
     2 Broy./Diag. 0.20E+00    1.9     0.49890275      -807.3912257032  1.64E+01
     3 Broy./Diag. 0.20E+00    2.0     0.12110427      -807.8583570786 -4.67E-01
     4 Broy./Diag. 0.20E+00    2.0     0.10747601      -808.2747247491 -4.16E-01
     5 Broy./Diag. 0.20E+00    2.0     0.06179482      -808.6918803334 -4.17E-01
     6 Broy./Diag. 0.20E+00    2.1     0.02411914      -808.8477029491 -1.56E-01
     7 Broy./Diag. 0.20E+00    2.1     0.01410186      -808.8225618759  2.51E-02
     8 Broy./Diag. 0.20E+00    2.1     0.00820421      -808.7223718359  1.00E-01
     9 Broy./Diag. 0.20E+00    2.2     0.00485229      -808.6565835287  6.58E-02
    10 Broy./Diag. 0.20E+00    2.1     0.00248213      -808.6154478462  4.11E-02
    11 Broy./Diag. 0.20E+00    2.1     0.00122504      -808.6042131559  1.12E-02
    12 Broy./Diag. 0.20E+00    2.1     0.00070466      -808.6029249209  1.29E-03
    13 Broy./Diag. 0.20E+00    2.1     0.00047592      -808.6055391117 -2.61E-03
    14 Broy./Diag. 0.20E+00    2.1     0.00048094      -808.6085723931 -3.03E-03
    15 Broy./Diag. 0.20E+00    2.1     0.00021087      -808.6095201670 -9.48E-04
    16 Broy./Diag. 0.20E+00    2.1     0.00012299      -808.6099527962 -4.33E-04
    17 Broy./Diag. 0.20E+00    2.1     0.00009366      -808.6094288875  5.24E-04
    18 Broy./Diag. 0.20E+00    2.1     0.00005075      -808.6089543324  4.75E-04
    19 Broy./Diag. 0.20E+00    2.1     0.00003878      -808.6086225190  3.32E-04

  *** SCF run converged in    19 steps ***


  Electronic density on regular grids:       -559.9999999988        0.0000000012
  Core density on regular grids:              559.9999998897       -0.0000001103
  Total charge density on r-space grids:       -0.0000001092
  Total charge density g-space grids:          -0.0000001092

  Overlap energy of the core charge distribution:               0.01878804220932
  Self energy of the core charge distribution:              -1737.24439639931302
  Core Hamiltonian energy:                                    411.95176168082520
  Hartree energy:                                             708.74435992194913
  Exchange-correlation energy:                               -190.47161835149365
  Dispersion energy:                                           -0.71845137320990
  Electronic entropic energy:                                  -0.88906499196876
  Fermi energy:                                                 0.12640405094491

  Total energy:                                              -808.60862251899391

 ENERGY| Total FORCE_EVAL ( QS ) energy [hartree]           -808.608268103482601

 MD_INI| MD initialization
 MD_INI| Potential energy [hartree]                          -0.808608268103E+03
 MD_INI| Kinetic energy [hartree]                             0.705408117717E+00
 MD_INI| Temperature [K]                                             1500.000000
 MD_INI| Cell volume [bohr^3]                                 1.884311149060E+04
 MD_INI| Cell volume [ang^3]                                  2.792261002858E+03
 MD_INI| Cell lengths [bohr]      2.66103675E+01  2.66103675E+01  2.66103675E+01
 MD_INI| Cell lengths [ang]       1.40816000E+01  1.40816000E+01  1.40816000E+01
 MD_INI| Cell angles [deg]        9.00000000E+01  9.00000000E+01  9.00000000E+01

 Number of electrons:                                                        560
 Number of occupied orbitals:                                                440
 Number of molecular orbitals:                                               480

 Number of orbital functions:                                               1300
 Number of independent orbital functions:                                   1300

 Extrapolation method: ASPC


 SCF WAVEFUNCTION OPTIMIZATION

  Step     Update method      Time    Convergence         Total energy    Change
  ------------------------------------------------------------------------------
     1 Broy./Diag. 0.20E+00    1.4     0.01055731      -808.6784452056 -8.09E+02
     2 Broy./Diag. 0.20E+00    1.9     0.00377684      -808.6953628527 -1.69E-02
     3 Broy./Diag. 0.20E+00    1.9     0.00196504      -808.6905007471  4.86E-03
     4 Broy./Diag. 0.20E+00    2.0     0.00098876      -808.6839391663  6.56E-03
     5 Broy./Diag. 0.20E+00    2.0     0.00070735      -808.6804842839  3.45E-03
     6 Broy./Diag. 0.20E+00    2.0     0.00028143      -808.6787984450  1.69E-03
     7 Broy./Diag. 0.20E+00    2.1     0.00012120      -808.6789333985 -1.35E-04
     8 Broy./Diag. 0.20E+00    2.1     0.00008034      -808.6790943395 -1.61E-04
     9 Broy./Diag. 0.20E+00    2.0     0.00004110      -808.6792656811 -1.71E-04

  *** SCF run converged in     9 steps ***


  Electronic density on regular grids:       -559.9999999988        0.0000000012
  Core density on regular grids:              559.9999998896       -0.0000001104
  Total charge density on r-space grids:       -0.0000001092
  Total charge density g-space grids:          -0.0000001092

  Overlap energy of the core charge distribution:               0.01803919214891
  Self energy of the core charge distribution:              -1737.24439639931302
  Core Hamiltonian energy:                                    411.88960861365553
  Hartree energy:                                             708.73136576608670
  Exchange-correlation energy:                               -190.46640385827112
  Dispersion energy:                                           -0.71849791514985
  Electronic entropic energy:                                  -0.88898096377778
  Fermi energy:                                                 0.12640582543188

  Total energy:                                              -808.67926568105224

 ENERGY| Total FORCE_EVAL ( QS ) energy [hartree]           -808.679413662040588

 MD| ***************************************************************************
 MD| Step number                                                               1
 MD| Time [fs]                                                          0.500000
 MD| Conserved quantity [hartree]                            -0.807903259134E+03
 MD| ---------------------------------------------------------------------------
 MD|                                          Instantaneous             Averages
 MD| CPU time per MD step [s]                     62.797641            62.797641
 MD| Energy drift per atom [K]          -0.126040752186E+01   0.000000000000E+00
 MD| Potential energy [hartree]         -0.808679413662E+03  -0.808679413662E+03
 MD| Kinetic energy [hartree]            0.774484082353E+00   0.774484082353E+00
 MD| Temperature [K]                            1646.885107          1646.885107
 MD| ***************************************************************************

 Number of electrons:                                                        560
 Number of occupied orbitals:                                                440
 Number of molecular orbitals:                                               480

 Number of orbital functions:                                               1300
 Number of independent orbital functions:                                   1300

 Extrapolation method: ASPC


 SCF WAVEFUNCTION OPTIMIZATION

  Step     Update method      Time    Convergence         Total energy    Change
  ------------------------------------------------------------------------------
     1 Broy./Diag. 0.20E+00    1.5     0.01433001      -808.8736128118 -8.09E+02
     2 Broy./Diag. 0.20E+00    2.4     0.00686210      -808.9277611067 -5.41E-02
     3 Broy./Diag. 0.20E+00    2.4     0.00314036      -808.9074443952  2.03E-02
     4 Broy./Diag. 0.20E+00    2.0     0.00147787      -808.8899147229  1.75E-02
     5 Broy./Diag. 0.20E+00    2.1     0.00107905      -808.8784613961  1.15E-02
     6 Broy./Diag. 0.20E+00    2.1     0.00033760      -808.8740619988  4.40E-03
     7 Broy./Diag. 0.20E+00    2.2     0.00017400      -808.8736113283  4.51E-04
     8 Broy./Diag. 0.20E+00    2.1     0.00015235      -808.8740054598 -3.94E-04
     9 Broy./Diag. 0.20E+00    2.1     0.00009454      -808.8745209543 -5.15E-04
    10 Broy./Diag. 0.20E+00    2.1     0.00002999      -808.8746938891 -1.73E-04

  *** SCF run converged in    10 steps ***


  Electronic density on regular grids:       -559.9999999988        0.0000000012
  Core density on regular grids:              559.9999998896       -0.0000001104
  Total charge density on r-space grids:       -0.0000001092
  Total charge density g-space grids:          -0.0000001092

  Overlap energy of the core charge distribution:               0.01624436283767
  Self energy of the core charge distribution:              -1737.24439639931302
  Core Hamiltonian energy:                                    411.68582980851215
  Hartree energy:                                             708.71770101520690
  Exchange-correlation energy:                               -190.44260538610780
  Dispersion energy:                                           -0.71853833183291
  Electronic entropic energy:                                  -0.88892886873610
  Fermi energy:                                                 0.12640539048785

  Total energy:                                              -808.87469388906175

 ENERGY| Total FORCE_EVAL ( QS ) energy [hartree]           -808.874854617803294

 MD| ***************************************************************************
 MD| Step number                                                               2
 MD| Time [fs]                                                          1.000000
 MD| Conserved quantity [hartree]                            -0.807904216677E+03
 MD| ---------------------------------------------------------------------------
 MD|                                          Instantaneous             Averages
 MD| CPU time per MD step [s]                     24.431539            43.614590
 MD| Energy drift per atom [K]          -0.428408808496E+01  -0.214204404248E+01
 MD| Potential energy [hartree]         -0.808874854618E+03  -0.808777134140E+03
 MD| Kinetic energy [hartree]            0.966332931217E+00   0.870408506785E+00
 MD| Temperature [K]                            2054.837987          1850.861547
 MD| ***************************************************************************

 Number of electrons:                                                        560
 Number of occupied orbitals:                                                440
 Number of molecular orbitals:                                               480

 Number of orbital functions:                                               1300
 Number of independent orbital functions:                                   1300

 Extrapolation method: ASPC


 SCF WAVEFUNCTION OPTIMIZATION

  Step     Update method      Time    Convergence         Total energy    Change
  ------------------------------------------------------------------------------
     1 Broy./Diag. 0.20E+00    1.5     0.02453264      -809.1774518903 -8.09E+02
     2 Broy./Diag. 0.20E+00    1.9     0.00970227      -809.2586442778 -8.12E-02
     3 Broy./Diag. 0.20E+00    2.0     0.00452520      -809.2273006165  3.13E-02
     4 Broy./Diag. 0.20E+00    2.0     0.00267257      -809.2009251362  2.64E-02
     5 Broy./Diag. 0.20E+00    2.1     0.00102767      -809.1844148792  1.65E-02
     6 Broy./Diag. 0.20E+00    2.2     0.00048181      -809.1790807399  5.33E-03
     7 Broy./Diag. 0.20E+00    2.2     0.00028537      -809.1779045431  1.18E-03
     8 Broy./Diag. 0.20E+00    2.4     0.00011856      -809.1782110992 -3.07E-04
     9 Broy./Diag. 0.20E+00    2.1     0.00008111      -809.1787667877 -5.56E-04
    10 Broy./Diag. 0.20E+00    2.1     0.00004645      -809.1790136809 -2.47E-04

  *** SCF run converged in    10 steps ***


  Electronic density on regular grids:       -559.9999999988        0.0000000012
  Core density on regular grids:              559.9999998896       -0.0000001104
  Total charge density on r-space grids:       -0.0000001092
  Total charge density g-space grids:          -0.0000001092

  Overlap energy of the core charge distribution:               0.01376169290442
  Self energy of the core charge distribution:              -1737.24439639931302
  Core Hamiltonian energy:                                    411.34988158742294
  Hartree energy:                                             708.71000452375142
  Exchange-correlation energy:                               -190.40077725310405
  Dispersion energy:                                           -0.71857277615020
  Electronic entropic energy:                                  -0.88891531356444
  Fermi energy:                                                 0.12640241978568

  Total energy:                                              -809.17901368094340

 ENERGY| Total FORCE_EVAL ( QS ) energy [hartree]           -809.179227573921025

 MD| ***************************************************************************
 MD| Step number                                                               3
 MD| Time [fs]                                                          1.500000
 MD| Conserved quantity [hartree]                            -0.807905570418E+03
 MD| ---------------------------------------------------------------------------
 MD|                                          Instantaneous             Averages
 MD| CPU time per MD step [s]                     24.093612            37.107597
 MD| Energy drift per atom [K]          -0.855885911883E+01  -0.428098240126E+01
 MD| Potential energy [hartree]         -0.809179227574E+03  -0.808911165285E+03
 MD| Kinetic energy [hartree]            0.126844310091E+01   0.100308670483E+01
 MD| Temperature [K]                            2697.253694          2132.992263
 MD| ***************************************************************************

 Number of electrons:                                                        560
 Number of occupied orbitals:                                                440
 Number of molecular orbitals:                                               480

 Number of orbital functions:                                               1300
 Number of independent orbital functions:                                   1300

 Extrapolation method: ASPC


 SCF WAVEFUNCTION OPTIMIZATION

  Step     Update method      Time    Convergence         Total energy    Change
  ------------------------------------------------------------------------------
     1 Broy./Diag. 0.20E+00    1.5     0.03345783      -809.5686082545 -8.10E+02
     2 Broy./Diag. 0.20E+00    2.2     0.01250058      -809.6785417885 -1.10E-01
     3 Broy./Diag. 0.20E+00    2.3     0.00616763      -809.6353262331  4.32E-02
     4 Broy./Diag. 0.20E+00    3.5     0.00360073      -809.6001160646  3.52E-02
     5 Broy./Diag. 0.20E+00    3.3     0.00091791      -809.5781433385  2.20E-02
     6 Broy./Diag. 0.20E+00    3.6     0.00053034      -809.5714884921  6.65E-03
     7 Broy./Diag. 0.20E+00    3.4     0.00033985      -809.5696755330  1.81E-03
     8 Broy./Diag. 0.20E+00    3.6     0.00014029      -809.5700659963 -3.90E-04
     9 Broy./Diag. 0.20E+00    3.3     0.00006123      -809.5706477401 -5.82E-04
    10 Broy./Diag. 0.20E+00    3.6     0.00006218      -809.5709998628 -3.52E-04
    11 Broy./Diag. 0.20E+00    3.1     0.00002943      -809.5712086551 -2.09E-04

  *** SCF run converged in    11 steps ***


  Electronic density on regular grids:       -559.9999999988        0.0000000012
  Core density on regular grids:              559.9999998896       -0.0000001104
  Total charge density on r-space grids:       -0.0000001092
  Total charge density g-space grids:          -0.0000001092

  Overlap energy of the core charge distribution:               0.01101095257885
  Self energy of the core charge distribution:              -1737.24439639931302
  Core Hamiltonian energy:                                    410.89503126999597
  Hartree energy:                                             708.71650847027968
  Exchange-correlation energy:                               -190.34181430801033
  Dispersion energy:                                           -0.71860162514436
  Electronic entropic energy:                                  -0.88894669671512
  Fermi energy:                                                 0.12639747505316

  Total energy:                                              -809.57120865507898

 ENERGY| Total FORCE_EVAL ( QS ) energy [hartree]           -809.571244139282840

 MD| ***************************************************************************
 MD| Step number                                                               4
 MD| Time [fs]                                                          2.000000
 MD| Conserved quantity [hartree]                            -0.807907114285E+03
 MD| ---------------------------------------------------------------------------
 MD|                                          Instantaneous             Averages
 MD| CPU time per MD step [s]                     38.092227            37.353755
 MD| Energy drift per atom [K]          -0.134339981126E+02  -0.656923632909E+01
 MD| Potential energy [hartree]         -0.809571244139E+03  -0.809076184998E+03
 MD| Kinetic energy [hartree]            0.165808463537E+01   0.116683618746E+01
 MD| Temperature [K]                            3525.798599          2481.193847
 MD| ***************************************************************************

 Number of electrons:                                                        560
 Number of occupied orbitals:                                                440
 Number of molecular orbitals:                                               480

 Number of orbital functions:                                               1300
 Number of independent orbital functions:                                   1300

 Extrapolation method: ASPC


 SCF WAVEFUNCTION OPTIMIZATION

  Step     Update method      Time    Convergence         Total energy    Change
  ------------------------------------------------------------------------------
     1 Broy./Diag. 0.20E+00    2.6     0.04148790      -810.0218464513 -8.10E+02
     2 Broy./Diag. 0.20E+00    3.4     0.01501446      -810.1567776867 -1.35E-01
     3 Broy./Diag. 0.20E+00    5.2     0.00770305      -810.1030182439  5.38E-02
     4 Broy./Diag. 0.20E+00    8.2     0.00440413      -810.0610769346  4.19E-02
     5 Broy./Diag. 0.20E+00    8.0     0.00113918      -810.0341159780  2.70E-02
     6 Broy./Diag. 0.20E+00    7.7     0.00072642      -810.0262761637  7.84E-03
     7 Broy./Diag. 0.20E+00    3.4     0.00038634      -810.0236476885  2.63E-03
     8 Broy./Diag. 0.20E+00    3.2     0.00020731      -810.0242486309 -6.01E-04
     9 Broy./Diag. 0.20E+00    8.3     0.00011820      -810.0247742491 -5.26E-04
    10 Broy./Diag. 0.20E+00    9.6     0.00007779      -810.0252965862 -5.22E-04
    11 Broy./Diag. 0.20E+00    6.9     0.00003271      -810.0254884495 -1.92E-04

  *** SCF run converged in    11 steps ***


  Electronic density on regular grids:       -559.9999999988        0.0000000012
  Core density on regular grids:              559.9999998897       -0.0000001103
  Total charge density on r-space grids:       -0.0000001092
  Total charge density g-space grids:          -0.0000001092

  Overlap energy of the core charge distribution:               0.00836440856868
  Self energy of the core charge distribution:              -1737.24439639931302
  Core Hamiltonian energy:                                    410.33961260620038
  Hartree energy:                                             708.74560418128215
  Exchange-correlation energy:                               -190.26701752869425
  Dispersion energy:                                           -0.71862527790972
  Electronic entropic energy:                                  -0.88903049614055
  Fermi energy:                                                 0.12639088071130

  Total energy:                                              -810.02548844951821

 ENERGY| Total FORCE_EVAL ( QS ) energy [hartree]           -810.025546650634624

 MD| ***************************************************************************
 MD| Step number                                                               5
 MD| Time [fs]                                                          2.500000
 MD| Conserved quantity [hartree]                            -0.807908641839E+03
 MD| ---------------------------------------------------------------------------
 MD|                                          Instantaneous             Averages
 MD| CPU time per MD step [s]                     73.083755            44.499755
 MD| Energy drift per atom [K]          -0.182576268312E+02  -0.890691442952E+01
 MD| Potential energy [hartree]         -0.810025546651E+03  -0.809266057329E+03
 MD| Kinetic energy [hartree]            0.210458949990E+01   0.135438684995E+01
 MD| Temperature [K]                            4475.259315          2880.006941
 MD| ***************************************************************************

 Number of electrons:                                                        560
 Number of occupied orbitals:                                                440
 Number of molecular orbitals:                                               480

 Number of orbital functions:                                               1300
 Number of independent orbital functions:                                   1300

 Extrapolation method: ASPC


 SCF WAVEFUNCTION OPTIMIZATION

  Step     Update method      Time    Convergence         Total energy    Change
  ------------------------------------------------------------------------------
     1 Broy./Diag. 0.20E+00    2.5     0.04819534      -810.5116082992 -8.11E+02
     2 Broy./Diag. 0.20E+00    3.2     0.01681066      -810.6652998224 -1.54E-01
     3 Broy./Diag. 0.20E+00    3.4     0.00911101      -810.6043121394  6.10E-02
     4 Broy./Diag. 0.20E+00    3.0     0.00508225      -810.5566248770  4.77E-02
     5 Broy./Diag. 0.20E+00    3.2     0.00132575      -810.5261968105  3.04E-02
     6 Broy./Diag. 0.20E+00    3.2     0.00089639      -810.5173601446  8.84E-03
     7 Broy./Diag. 0.20E+00    3.3     0.00052861      -810.5143373535  3.02E-03
     8 Broy./Diag. 0.20E+00    3.4     0.00031872      -810.5150853216 -7.48E-04
     9 Broy./Diag. 0.20E+00    3.3     0.00016407      -810.5156324834 -5.47E-04
    10 Broy./Diag. 0.20E+00    3.8     0.00008884      -810.5162526075 -6.20E-04
    11 Broy./Diag. 0.20E+00    3.7     0.00003750      -810.5164820918 -2.29E-04

  *** SCF run converged in    11 steps ***


  Electronic density on regular grids:       -559.9999999988        0.0000000012
  Core density on regular grids:              559.9999998897       -0.0000001103
  Total charge density on r-space grids:       -0.0000001091
  Total charge density g-space grids:          -0.0000001091

  Overlap energy of the core charge distribution:               0.00606884154866
  Self energy of the core charge distribution:              -1737.24439639931302
  Core Hamiltonian energy:                                    409.70402840508774
  Hartree energy:                                             708.80364252637310
  Exchange-correlation energy:                               -190.17800816707478
  Dispersion energy:                                           -0.71864411920850
  Electronic entropic energy:                                  -0.88917323492588
  Fermi energy:                                                 0.12638315849246

  Total energy:                                              -810.51648209179064

 ENERGY| Total FORCE_EVAL ( QS ) energy [hartree]           -810.516526134366245

 MD| ***************************************************************************
 MD| Step number                                                               6
 MD| Time [fs]                                                          3.000000
 MD| Conserved quantity [hartree]                            -0.807909990249E+03
 MD| ---------------------------------------------------------------------------
 MD|                                          Instantaneous             Averages
 MD| CPU time per MD step [s]                     41.514000            44.002129
 MD| Energy drift per atom [K]          -0.225155650289E+02  -0.111750228628E+02
 MD| Potential energy [hartree]         -0.810516526134E+03  -0.809474468796E+03
 MD| Kinetic energy [hartree]            0.258828199054E+01   0.156003604005E+01
 MD| Temperature [K]                            5503.796864          3317.305261
 MD| ***************************************************************************

 Number of electrons:                                                        560
 Number of occupied orbitals:                                                440
 Number of molecular orbitals:                                               480

 Number of orbital functions:                                               1300
 Number of independent orbital functions:                                   1300

 Extrapolation method: ASPC


 SCF WAVEFUNCTION OPTIMIZATION

  Step     Update method      Time    Convergence         Total energy    Change
  ------------------------------------------------------------------------------
     1 Broy./Diag. 0.20E+00    2.5     0.05372839      -811.0151048062 -8.11E+02
     2 Broy./Diag. 0.20E+00    3.2     0.01803207      -811.1813717507 -1.66E-01
     3 Broy./Diag. 0.20E+00    3.7     0.01047372      -811.1157889465  6.56E-02
     4 Broy./Diag. 0.20E+00    3.4     0.00560913      -811.0645794482  5.12E-02
     5 Broy./Diag. 0.20E+00    3.4     0.00144895      -811.0317159931  3.29E-02
     6 Broy./Diag. 0.20E+00    3.4     0.00105030      -811.0222388101  9.48E-03
     7 Broy./Diag. 0.20E+00    3.1     0.00076807      -811.0188367104  3.40E-03
     8 Broy./Diag. 0.20E+00    3.3     0.00043211      -811.0197419970 -9.05E-04
     9 Broy./Diag. 0.20E+00    3.6     0.00017820      -811.0203461549 -6.04E-04
    10 Broy./Diag. 0.20E+00    3.3     0.00010010      -811.0210539622 -7.08E-04
    11 Broy./Diag. 0.20E+00    3.2     0.00004358      -811.0213408134 -2.87E-04

  *** SCF run converged in    11 steps ***


  Electronic density on regular grids:       -559.9999999988        0.0000000012
  Core density on regular grids:              559.9999998896       -0.0000001104
  Total charge density on r-space grids:       -0.0000001092
  Total charge density g-space grids:          -0.0000001092

  Overlap energy of the core charge distribution:               0.00423191413297
  Self energy of the core charge distribution:              -1737.24439639931302
  Core Hamiltonian energy:                                    409.00906124403383
  Hartree energy:                                             708.89435725159535
  Exchange-correlation energy:                               -190.07655386560478
  Dispersion energy:                                           -0.71865841441251
  Electronic entropic energy:                                  -0.88938235867786
  Fermi energy:                                                 0.12637457951699

  Total energy:                                              -811.02134081343229

 ENERGY| Total FORCE_EVAL ( QS ) energy [hartree]           -811.021348866317339

 MD| ***************************************************************************
 MD| Step number                                                               7
 MD| Time [fs]                                                          3.500000
 MD| Conserved quantity [hartree]                            -0.807911059056E+03
 MD| ---------------------------------------------------------------------------
 MD|                                          Instantaneous             Averages
 MD| CPU time per MD step [s]                     41.008216            43.574427
 MD| Energy drift per atom [K]          -0.258905858765E+02  -0.132772461504E+02
 MD| Potential energy [hartree]         -0.811021348866E+03  -0.809695451663E+03
 MD| Kinetic energy [hartree]            0.309786110023E+01   0.177972533436E+01
 MD| Temperature [K]                            6587.380459          3784.458861
 MD| ***************************************************************************

 Number of electrons:                                                        560
 Number of occupied orbitals:                                                440
 Number of molecular orbitals:                                               480

 Number of orbital functions:                                               1300
 Number of independent orbital functions:                                   1300

 Extrapolation method: ASPC


 SCF WAVEFUNCTION OPTIMIZATION

  Step     Update method      Time    Convergence         Total energy    Change
  ------------------------------------------------------------------------------
     1 Broy./Diag. 0.20E+00    2.5     0.05774973      -811.5142183330 -8.12E+02
     2 Broy./Diag. 0.20E+00    3.4     0.01866482      -811.6866312938 -1.72E-01
     3 Broy./Diag. 0.20E+00    3.1     0.01170824      -811.6194930140  6.71E-02
     4 Broy./Diag. 0.20E+00    2.8     0.00595907      -811.5667424939  5.28E-02
     5 Broy./Diag. 0.20E+00    3.2     0.00184341      -811.5325539541  3.42E-02
     6 Broy./Diag. 0.20E+00    3.3     0.00131597      -811.5226677280  9.89E-03
     7 Broy./Diag. 0.20E+00    3.3     0.00093638      -811.5190329264  3.63E-03
     8 Broy./Diag. 0.20E+00    3.5     0.00047667      -811.5200751106 -1.04E-03
     9 Broy./Diag. 0.20E+00    3.6     0.00016030      -811.5207955616 -7.20E-04
    10 Broy./Diag. 0.20E+00    3.3     0.00011017      -811.5215690955 -7.74E-04
    11 Broy./Diag. 0.20E+00    3.3     0.00004664      -811.5218908038 -3.22E-04

  *** SCF run converged in    11 steps ***


  Electronic density on regular grids:       -559.9999999988        0.0000000012
  Core density on regular grids:              559.9999998897       -0.0000001103
  Total charge density on r-space grids:       -0.0000001092
  Total charge density g-space grids:          -0.0000001092

  Overlap energy of the core charge distribution:               0.00285298156906
  Self energy of the core charge distribution:              -1737.24439639931302
  Core Hamiltonian energy:                                    408.27361432648098
  Hartree energy:                                             709.01873821322204
  Exchange-correlation energy:                               -189.96436423869670
  Dispersion energy:                                           -0.71866818680924
  Electronic entropic energy:                                  -0.88966690479090
  Fermi energy:                                                 0.12636516614100

  Total energy:                                              -811.52189080379958

 ENERGY| Total FORCE_EVAL ( QS ) energy [hartree]           -811.521874423923123

 MD| ***************************************************************************
 MD| Step number                                                               8
 MD| Time [fs]                                                          4.000000
 MD| Conserved quantity [hartree]                            -0.807911809368E+03
 MD| ---------------------------------------------------------------------------
 MD|                                          Instantaneous             Averages
 MD| CPU time per MD step [s]                     40.777490            43.224810
 MD| Energy drift per atom [K]          -0.282598803464E+02  -0.151500754249E+02
 MD| Potential energy [hartree]         -0.811521874424E+03  -0.809923754509E+03
 MD| Kinetic energy [hartree]            0.361700197378E+01   0.200938491429E+01
 MD| Temperature [K]                            7691.296463          4272.813561
 MD| ***************************************************************************

 Number of electrons:                                                        560
 Number of occupied orbitals:                                                440
 Number of molecular orbitals:                                               480

 Number of orbital functions:                                               1300
 Number of independent orbital functions:                                   1300

 Extrapolation method: ASPC


 SCF WAVEFUNCTION OPTIMIZATION

  Step     Update method      Time    Convergence         Total energy    Change
  ------------------------------------------------------------------------------
     1 Broy./Diag. 0.20E+00    2.6     0.06031883      -811.9943041542 -8.12E+02
     2 Broy./Diag. 0.20E+00    3.3     0.01903717      -812.1660753937 -1.72E-01
     3 Broy./Diag. 0.20E+00    3.6     0.01281515      -812.1006760700  6.54E-02
     4 Broy./Diag. 0.20E+00    3.4     0.00614376      -812.0483988015  5.23E-02
     5 Broy./Diag. 0.20E+00    3.3     0.00212651      -812.0140762735  3.43E-02
     6 Broy./Diag. 0.20E+00    3.5     0.00149641      -812.0039365762  1.01E-02
     7 Broy./Diag. 0.20E+00    3.3     0.00101867      -812.0002259344  3.71E-03
     8 Broy./Diag. 0.20E+00    3.6     0.00048397      -812.0013914231 -1.17E-03
     9 Broy./Diag. 0.20E+00    3.8     0.00014603      -812.0022474546 -8.56E-04
    10 Broy./Diag. 0.20E+00    3.5     0.00011773      -812.0030831119 -8.36E-04
    11 Broy./Diag. 0.20E+00    4.0     0.00004722      -812.0034148469 -3.32E-04

  *** SCF run converged in    11 steps ***


  Electronic density on regular grids:       -559.9999999988        0.0000000012
  Core density on regular grids:              559.9999998896       -0.0000001104
  Total charge density on r-space grids:       -0.0000001092
  Total charge density g-space grids:          -0.0000001092

  Overlap energy of the core charge distribution:               0.00187260447676
  Self energy of the core charge distribution:              -1737.24439639931302
  Core Hamiltonian energy:                                    407.51617406558205
  Hartree energy:                                             709.17506495532768
  Exchange-correlation energy:                               -189.84341897576846
  Dispersion energy:                                           -0.71867305029516
  Electronic entropic energy:                                  -0.89003698252697
  Fermi energy:                                                 0.12635471539696

  Total energy:                                              -812.00341484692706

 ENERGY| Total FORCE_EVAL ( QS ) energy [hartree]           -812.003389904782921

 MD| ***************************************************************************
 MD| Step number                                                               9
 MD| Time [fs]                                                          4.500000
 MD| Conserved quantity [hartree]                            -0.807912251292E+03
 MD| ---------------------------------------------------------------------------
 MD|                                          Instantaneous             Averages
 MD| CPU time per MD step [s]                     43.521624            43.257789
 MD| Energy drift per atom [K]          -0.296553637709E+02  -0.167617741300E+02
 MD| Potential energy [hartree]         -0.812003389905E+03  -0.810154825108E+03
 MD| Kinetic energy [hartree]            0.409072949729E+01   0.224064542351E+01
 MD| Temperature [K]                            8698.644220          4764.572523
 MD| ***************************************************************************

 Number of electrons:                                                        560
 Number of occupied orbitals:                                                440
 Number of molecular orbitals:                                               480

 Number of orbital functions:                                               1300
 Number of independent orbital functions:                                   1300

 Extrapolation method: ASPC


 SCF WAVEFUNCTION OPTIMIZATION

  Step     Update method      Time    Convergence         Total energy    Change
  ------------------------------------------------------------------------------
     1 Broy./Diag. 0.20E+00    2.7     0.06121885      -812.4442197456 -8.12E+02
     2 Broy./Diag. 0.20E+00    3.3     0.02074656      -812.6089395948 -1.65E-01
     3 Broy./Diag. 0.20E+00    3.6     0.01367489      -812.5483182824  6.06E-02
     4 Broy./Diag. 0.20E+00    3.2     0.00615630      -812.4984046692  4.99E-02
     5 Broy./Diag. 0.20E+00    3.5     0.00227028      -812.4650623510  3.33E-02
     6 Broy./Diag. 0.20E+00    3.5     0.00155670      -812.4548056254  1.03E-02
     7 Broy./Diag. 0.20E+00    3.1     0.00102945      -812.4511830494  3.62E-03
     8 Broy./Diag. 0.20E+00    3.1     0.00048472      -812.4524711025 -1.29E-03
     9 Broy./Diag. 0.20E+00    3.7     0.00015195      -812.4534508000 -9.80E-04
    10 Broy./Diag. 0.20E+00    4.0     0.00012102      -812.4543510142 -9.00E-04
    11 Broy./Diag. 0.20E+00    7.9     0.00004706      -812.4546737039 -3.23E-04

  *** SCF run converged in    11 steps ***


  Electronic density on regular grids:       -559.9999999988        0.0000000012
  Core density on regular grids:              559.9999998896       -0.0000001104
  Total charge density on r-space grids:       -0.0000001092
  Total charge density g-space grids:          -0.0000001092

  Overlap energy of the core charge distribution:               0.00120708497164
  Self energy of the core charge distribution:              -1737.24439639931302
  Core Hamiltonian energy:                                    406.75454537298009
  Hartree energy:                                             709.35915740003941
  Exchange-correlation energy:                               -189.71600973712012
  Dispersion energy:                                           -0.71867217310631
  Electronic entropic energy:                                  -0.89050386650531
  Fermi energy:                                                 0.12634277034903

  Total energy:                                              -812.45467370388167

 ENERGY| Total FORCE_EVAL ( QS ) energy [hartree]           -812.454652751387243

 MD| ***************************************************************************
 MD| Step number                                                              10
 MD| Time [fs]                                                          5.000000
 MD| Conserved quantity [hartree]                            -0.807912431405E+03
 MD| ---------------------------------------------------------------------------
 MD|                                          Instantaneous             Averages
 MD| CPU time per MD step [s]                     48.154591            43.747470
 MD| Energy drift per atom [K]          -0.302241140163E+02  -0.181080081187E+02
 MD| Potential energy [hartree]         -0.812454652751E+03  -0.810384807872E+03
 MD| Kinetic energy [hartree]            0.453771327792E+01   0.247035220895E+01
 MD| Temperature [K]                            9649.123317          5253.027603
 MD| ***************************************************************************

 Number of electrons:                                                        560
 Number of occupied orbitals:                                                440
 Number of molecular orbitals:                                               480

 Number of orbital functions:                                               1300
 Number of independent orbital functions:                                   1300

 Extrapolation method: ASPC


 SCF WAVEFUNCTION OPTIMIZATION

  Step     Update method      Time    Convergence         Total energy    Change
  ------------------------------------------------------------------------------
     1 Broy./Diag. 0.20E+00    7.3     0.06081772      -812.8587097250 -8.13E+02
     2 Broy./Diag. 0.20E+00    8.2     0.02218085      -813.0120211319 -1.53E-01
     3 Broy./Diag. 0.20E+00    9.0     0.01428461      -812.9583091357  5.37E-02
     4 Broy./Diag. 0.20E+00    9.1     0.00604741      -812.9119611054  4.63E-02
     5 Broy./Diag. 0.20E+00    8.5     0.00226459      -812.8803629030  3.16E-02
     6 Broy./Diag. 0.20E+00    9.1     0.00150969      -812.8700651648  1.03E-02
     7 Broy./Diag. 0.20E+00    7.7     0.00100265      -812.8666707883  3.39E-03
     8 Broy./Diag. 0.20E+00    8.2     0.00050138      -812.8681056406 -1.43E-03
     9 Broy./Diag. 0.20E+00    3.5     0.00018218      -812.8691792104 -1.07E-03
    10 Broy./Diag. 0.20E+00    3.5     0.00012012      -812.8701481043 -9.69E-04
    11 Broy./Diag. 0.20E+00    3.8     0.00006378      -812.8704528258 -3.05E-04
    12 Broy./Diag. 0.20E+00    3.5     0.00004370      -812.8705343483 -8.15E-05

  *** SCF run converged in    12 steps ***


  Electronic density on regular grids:       -559.9999999988        0.0000000012
  Core density on regular grids:              559.9999998896       -0.0000001104
  Total charge density on r-space grids:       -0.0000001092
  Total charge density g-space grids:          -0.0000001092

  Overlap energy of the core charge distribution:               0.00076994283374
  Self energy of the core charge distribution:              -1737.24439639931302
  Core Hamiltonian energy:                                    406.00043990211555
  Hartree energy:                                             709.56622936955512
  Exchange-correlation energy:                               -189.58383027645655
  Dispersion energy:                                           -0.71866429831953
  Electronic entropic energy:                                  -0.89108322720522
  Fermi energy:                                                 0.12632852468633

  Total energy:                                              -812.87053434831614

 ENERGY| Total FORCE_EVAL ( QS ) energy [hartree]           -812.870443846432295

 MD| ***************************************************************************
 MD| Step number                                                              11
 MD| Time [fs]                                                          5.500000
 MD| Conserved quantity [hartree]                            -0.807912405646E+03
 MD| ---------------------------------------------------------------------------
 MD|                                          Instantaneous             Averages
 MD| CPU time per MD step [s]                     88.373270            47.804360
 MD| Energy drift per atom [K]          -0.301427760617E+02  -0.192020779317E+02
 MD| Potential energy [hartree]         -0.812870443846E+03  -0.810610774779E+03
 MD| Kinetic energy [hartree]            0.494015410086E+01   0.269487965367E+01
 MD| Temperature [K]                           10504.884995          5730.469184
 MD| ***************************************************************************

 Number of electrons:                                                        560
 Number of occupied orbitals:                                                440
 Number of molecular orbitals:                                               480

 Number of orbital functions:                                               1300
 Number of independent orbital functions:                                   1300

 Extrapolation method: ASPC


 SCF WAVEFUNCTION OPTIMIZATION

  Step     Update method      Time    Convergence         Total energy    Change
  ------------------------------------------------------------------------------
     1 Broy./Diag. 0.20E+00    2.3     0.05978614      -813.2346415913 -8.13E+02
     2 Broy./Diag. 0.20E+00    3.4     0.02353206      -813.3713692222 -1.37E-01
     3 Broy./Diag. 0.20E+00    3.4     0.01478621      -813.3272207341  4.41E-02
     4 Broy./Diag. 0.20E+00    3.1     0.00589006      -813.2853510943  4.19E-02
     5 Broy./Diag. 0.20E+00    3.1     0.00226597      -813.2565007994  2.89E-02
     6 Broy./Diag. 0.20E+00    3.3     0.00135190      -813.2462928076  1.02E-02
     7 Broy./Diag. 0.20E+00    3.7     0.00092366      -813.2435103219  2.78E-03
     8 Broy./Diag. 0.20E+00    3.4     0.00052738      -813.2451191825 -1.61E-03
     9 Broy./Diag. 0.20E+00    3.5     0.00023333      -813.2462452370 -1.13E-03
    10 Broy./Diag. 0.20E+00    3.3     0.00011373      -813.2472590881 -1.01E-03
    11 Broy./Diag. 0.20E+00    3.4     0.00006773      -813.2475310244 -2.72E-04
    12 Broy./Diag. 0.20E+00    3.2     0.00004628      -813.2476360745 -1.05E-04

  *** SCF run converged in    12 steps ***


  Electronic density on regular grids:       -559.9999999988        0.0000000012
  Core density on regular grids:              559.9999998896       -0.0000001104
  Total charge density on r-space grids:       -0.0000001092
  Total charge density g-space grids:          -0.0000001092

  Overlap energy of the core charge distribution:               0.00049063705195
  Self energy of the core charge distribution:              -1737.24439639931302
  Core Hamiltonian energy:                                    405.26496882450868
  Hartree energy:                                             709.79057021369294
  Exchange-correlation energy:                               -189.44883313677366
  Dispersion energy:                                           -0.71864783880250
  Electronic entropic energy:                                  -0.89178887080149
  Fermi energy:                                                 0.12631063363195

  Total energy:                                              -813.24763607452326

 ENERGY| Total FORCE_EVAL ( QS ) energy [hartree]           -813.247543158261124

 MD| ***************************************************************************
 MD| Step number                                                              12
 MD| Time [fs]                                                          6.000000
 MD| Conserved quantity [hartree]                            -0.807912236046E+03
 MD| ---------------------------------------------------------------------------
 MD|                                          Instantaneous             Averages
 MD| CPU time per MD step [s]                     44.500580            47.529045
 MD| Energy drift per atom [K]          -0.296072211677E+02  -0.200691732013E+02
 MD| Potential energy [hartree]         -0.813247543158E+03  -0.810830505477E+03
 MD| Kinetic energy [hartree]            0.532193846465E+01   0.291380122125E+01
 MD| Temperature [K]                           11316.722187          6195.990267
 MD| ***************************************************************************

 Number of electrons:                                                        560
 Number of occupied orbitals:                                                440
 Number of molecular orbitals:                                               480

 Number of orbital functions:                                               1300
 Number of independent orbital functions:                                   1300

 Extrapolation method: ASPC


 SCF WAVEFUNCTION OPTIMIZATION

  Step     Update method      Time    Convergence         Total energy    Change
  ------------------------------------------------------------------------------
     1 Broy./Diag. 0.20E+00    2.9     0.06359527      -813.5722501353 -8.14E+02
     2 Broy./Diag. 0.20E+00    3.3     0.02451368      -813.6907516583 -1.19E-01
     3 Broy./Diag. 0.20E+00    3.4     0.01494143      -813.6565651490  3.42E-02
     4 Broy./Diag. 0.20E+00    3.1     0.00564745      -813.6204683297  3.61E-02
     5 Broy./Diag. 0.20E+00    2.7     0.00270343      -813.5943920752  2.61E-02
     6 Broy./Diag. 0.20E+00    3.2     0.00134383      -813.5844363839  9.96E-03
     7 Broy./Diag. 0.20E+00    3.3     0.00091111      -813.5819216528  2.51E-03
     8 Broy./Diag. 0.20E+00    3.3     0.00055574      -813.5836934766 -1.77E-03
     9 Broy./Diag. 0.20E+00    3.3     0.00026638      -813.5848698738 -1.18E-03
    10 Broy./Diag. 0.20E+00    3.3     0.00010944      -813.5859318705 -1.06E-03
    11 Broy./Diag. 0.20E+00    3.2     0.00007370      -813.5861893059 -2.57E-04
    12 Broy./Diag. 0.20E+00    3.3     0.00004742      -813.5863054326 -1.16E-04

  *** SCF run converged in    12 steps ***


  Electronic density on regular grids:       -559.9999999988        0.0000000012
  Core density on regular grids:              559.9999998896       -0.0000001104
  Total charge density on r-space grids:       -0.0000001092
  Total charge density g-space grids:          -0.0000001092

  Overlap energy of the core charge distribution:               0.00031516778015
  Self energy of the core charge distribution:              -1737.24439639931302
  Core Hamiltonian energy:                                    404.55462175124853
  Hartree energy:                                             710.02686717841038
  Exchange-correlation energy:                               -189.31245516076152
  Dispersion energy:                                           -0.71862100422004
  Electronic entropic energy:                                  -0.89263735730922
  Fermi energy:                                                 0.12628752253754

  Total energy:                                              -813.58630543256015

 ENERGY| Total FORCE_EVAL ( QS ) energy [hartree]           -813.586208192579306

 MD| ***************************************************************************
 MD| Step number                                                              13
 MD| Time [fs]                                                          6.500000
 MD| Conserved quantity [hartree]                            -0.807911973844E+03
 MD| ---------------------------------------------------------------------------
 MD|                                          Instantaneous             Averages
 MD| CPU time per MD step [s]                     43.469656            47.216785
 MD| Energy drift per atom [K]          -0.287792531749E+02  -0.207391793532E+02
 MD| Potential energy [hartree]         -0.813586208193E+03  -0.811042482609E+03
 MD| Kinetic energy [hartree]            0.564928139026E+01   0.312422277271E+01
 MD| Temperature [K]                           12012.793548          6643.436674
 MD| ***************************************************************************

 Number of electrons:                                                        560
 Number of occupied orbitals:                                                440
 Number of molecular orbitals:                                               480

 Number of orbital functions:                                               1300
 Number of independent orbital functions:                                   1300

 Extrapolation method: ASPC


 SCF WAVEFUNCTION OPTIMIZATION

  Step     Update method      Time    Convergence         Total energy    Change
  ------------------------------------------------------------------------------
     1 Broy./Diag. 0.20E+00    2.8     0.06729490      -813.8728423197 -8.14E+02
     2 Broy./Diag. 0.20E+00    3.0     0.02546547      -813.9702759788 -9.74E-02
     3 Broy./Diag. 0.20E+00    2.9     0.01498135      -813.9474965664  2.28E-02
     4 Broy./Diag. 0.20E+00    2.8     0.00557794      -813.9176607537  2.98E-02
     5 Broy./Diag. 0.20E+00    3.8     0.00303900      -813.8950063927  2.27E-02
     6 Broy./Diag. 0.20E+00    3.2     0.00133903      -813.8853522182  9.65E-03
     7 Broy./Diag. 0.20E+00    3.2     0.00087998      -813.8832106144  2.14E-03
     8 Broy./Diag. 0.20E+00    2.9     0.00058802      -813.8851466177 -1.94E-03
     9 Broy./Diag. 0.20E+00    3.1     0.00030635      -813.8863475110 -1.20E-03
    10 Broy./Diag. 0.20E+00    3.1     0.00010265      -813.8874472864 -1.10E-03
    11 Broy./Diag. 0.20E+00    3.0     0.00007619      -813.8876830104 -2.36E-04
    12 Broy./Diag. 0.20E+00    3.0     0.00004843      -813.8878045836 -1.22E-04

  *** SCF run converged in    12 steps ***


  Electronic density on regular grids:       -559.9999999988        0.0000000012
  Core density on regular grids:              559.9999998895       -0.0000001105
  Total charge density on r-space grids:       -0.0000001093
  Total charge density g-space grids:          -0.0000001093

  Overlap energy of the core charge distribution:               0.00020609379810
  Self energy of the core charge distribution:              -1737.24439639931302
  Core Hamiltonian energy:                                    403.87497130982234
  Hartree energy:                                             710.26981547640094
  Exchange-correlation energy:                               -189.17618409762952
  Dispersion energy:                                           -0.71858210810463
  Electronic entropic energy:                                  -0.89363514350533
  Fermi energy:                                                 0.12625740202767

  Total energy:                                              -813.88780458357860

 ENERGY| Total FORCE_EVAL ( QS ) energy [hartree]           -813.887710798609419

 MD| ***************************************************************************
 MD| Step number                                                              14
 MD| Time [fs]                                                          7.000000
 MD| Conserved quantity [hartree]                            -0.807911662584E+03
 MD| ---------------------------------------------------------------------------
 MD|                                          Instantaneous             Averages
 MD| CPU time per MD step [s]                     41.966950            46.841797
 MD| Energy drift per atom [K]          -0.277963731233E+02  -0.212432646224E+02
 MD| Potential energy [hartree]         -0.813887710799E+03  -0.811245713194E+03
 MD| Kinetic energy [hartree]            0.594938044965E+01   0.332601974964E+01
 MD| Temperature [K]                           12650.932773          7072.543538
 MD| ***************************************************************************

 Number of electrons:                                                        560
 Number of occupied orbitals:                                                440
 Number of molecular orbitals:                                               480

 Number of orbital functions:                                               1300
 Number of independent orbital functions:                                   1300

 Extrapolation method: ASPC


 SCF WAVEFUNCTION OPTIMIZATION

  Step     Update method      Time    Convergence         Total energy    Change
  ------------------------------------------------------------------------------
     1 Broy./Diag. 0.20E+00    2.4     0.07019416      -814.1388317358 -8.14E+02
     2 Broy./Diag. 0.20E+00    3.0     0.02626389      -814.2144621203 -7.56E-02
     3 Broy./Diag. 0.20E+00    3.1     0.01485188      -814.2034114736  1.11E-02
     4 Broy./Diag. 0.20E+00    3.1     0.00545549      -814.1798028065  2.36E-02
     5 Broy./Diag. 0.20E+00    3.5     0.00327137      -814.1607722294  1.90E-02
     6 Broy./Diag. 0.20E+00    3.7     0.00133022      -814.1515414494  9.23E-03
     7 Broy./Diag. 0.20E+00    3.3     0.00086623      -814.1497692323  1.77E-03
     8 Broy./Diag. 0.20E+00    3.3     0.00062327      -814.1518751523 -2.11E-03
     9 Broy./Diag. 0.20E+00    3.7     0.00034172      -814.1530786156 -1.20E-03
    10 Broy./Diag. 0.20E+00    3.2     0.00011460      -814.1542013474 -1.12E-03
    11 Broy./Diag. 0.20E+00    3.0     0.00007782      -814.1544115338 -2.10E-04
    12 Broy./Diag. 0.20E+00    3.2     0.00004950      -814.1545300560 -1.19E-04

  *** SCF run converged in    12 steps ***


  Electronic density on regular grids:       -559.9999999988        0.0000000012
  Core density on regular grids:              559.9999998895       -0.0000001105
  Total charge density on r-space grids:       -0.0000001093
  Total charge density g-space grids:          -0.0000001093

  Overlap energy of the core charge distribution:               0.00013843828797
  Self energy of the core charge distribution:              -1737.24439639931302
  Core Hamiltonian energy:                                    403.22966203221029
  Hartree energy:                                             710.51469350676780
  Exchange-correlation energy:                               -189.04132751905405
  Dispersion energy:                                           -0.71852982971411
  Electronic entropic energy:                                  -0.89477047873940
  Fermi energy:                                                 0.12621869760878

  Total energy:                                              -814.15453005604479

 ENERGY| Total FORCE_EVAL ( QS ) energy [hartree]           -814.154442221995168

 MD| ***************************************************************************
 MD| Step number                                                              15
 MD| Time [fs]                                                          7.500000
 MD| Conserved quantity [hartree]                            -0.807911336053E+03
 MD| ---------------------------------------------------------------------------
 MD|                                          Instantaneous             Averages
 MD| CPU time per MD step [s]                     43.835370            46.641368
 MD| Energy drift per atom [K]          -0.267652707833E+02  -0.216113983665E+02
 MD| Potential energy [hartree]         -0.814154442222E+03  -0.811439628463E+03
 MD| Kinetic energy [hartree]            0.619955631324E+01   0.351758885388E+01
 MD| Temperature [K]                           13182.913885          7479.901561
 MD| ***************************************************************************

 Number of electrons:                                                        560
 Number of occupied orbitals:                                                440
 Number of molecular orbitals:                                               480

 Number of orbital functions:                                               1300
 Number of independent orbital functions:                                   1300

 Extrapolation method: ASPC


 SCF WAVEFUNCTION OPTIMIZATION

  Step     Update method      Time    Convergence         Total energy    Change
  ------------------------------------------------------------------------------
     1 Broy./Diag. 0.20E+00    2.5     0.07218331      -814.3731817491 -8.14E+02
     2 Broy./Diag. 0.20E+00    2.9     0.02711475      -814.4264422218 -5.33E-02
     3 Broy./Diag. 0.20E+00    2.8     0.01462407      -814.4274427214 -1.00E-03
     4 Broy./Diag. 0.20E+00    3.2     0.00569750      -814.4098047101  1.76E-02
     5 Broy./Diag. 0.20E+00    4.2     0.00341091      -814.3946297387  1.52E-02
     6 Broy./Diag. 0.20E+00    3.4     0.00139759      -814.3859497336  8.68E-03
     7 Broy./Diag. 0.20E+00    3.6     0.00084570      -814.3845810963  1.37E-03
     8 Broy./Diag. 0.20E+00    3.4     0.00064867      -814.3868464587 -2.27E-03
     9 Broy./Diag. 0.20E+00    3.4     0.00037245      -814.3880383955 -1.19E-03
    10 Broy./Diag. 0.20E+00    3.3     0.00012660      -814.3891634386 -1.13E-03
    11 Broy./Diag. 0.20E+00    3.4     0.00007849      -814.3893404372 -1.77E-04
    12 Broy./Diag. 0.20E+00    3.3     0.00005047      -814.3894505400 -1.10E-04
    13 Broy./Diag. 0.20E+00    3.3     0.00002256      -814.3894186778  3.19E-05

  *** SCF run converged in    13 steps ***


  Electronic density on regular grids:       -559.9999999988        0.0000000012
  Core density on regular grids:              559.9999998894       -0.0000001106
  Total charge density on r-space grids:       -0.0000001094
  Total charge density g-space grids:          -0.0000001094

  Overlap energy of the core charge distribution:               0.00009625635812
  Self energy of the core charge distribution:              -1737.24439639931302
  Core Hamiltonian energy:                                    402.62082599027309
  Hartree energy:                                             710.75753216392161
  Exchange-correlation energy:                               -188.90900763249851
  Dispersion energy:                                           -0.71846349335605
  Electronic entropic energy:                                  -0.89600482196092
  Fermi energy:                                                 0.12617064755345

  Total energy:                                              -814.38941867780466

 ENERGY| Total FORCE_EVAL ( QS ) energy [hartree]           -814.389370140796132

 MD| ***************************************************************************
 MD| Step number                                                              16
 MD| Time [fs]                                                          8.000000
 MD| Conserved quantity [hartree]                            -0.807911017518E+03
 MD| ---------------------------------------------------------------------------
 MD|                                          Instantaneous             Averages
 MD| CPU time per MD step [s]                     47.890646            46.719448
 MD| Energy drift per atom [K]          -0.257594198742E+02  -0.218706497107E+02
 MD| Potential energy [hartree]         -0.814389370141E+03  -0.811623987318E+03
 MD| Kinetic energy [hartree]            0.640991157328E+01   0.369835902384E+01
 MD| Temperature [K]                           13630.219328          7864.296421
 MD| ***************************************************************************

 Number of electrons:                                                        560
 Number of occupied orbitals:                                                440
 Number of molecular orbitals:                                               480

 Number of orbital functions:                                               1300
 Number of independent orbital functions:                                   1300

 Extrapolation method: ASPC


 SCF WAVEFUNCTION OPTIMIZATION

  Step     Update method      Time    Convergence         Total energy    Change
  ------------------------------------------------------------------------------
     1 Broy./Diag. 0.20E+00    3.0     0.07295665      -814.5789049221 -8.15E+02
     2 Broy./Diag. 0.20E+00    3.0     0.02916771      -814.6102841966 -3.14E-02
     3 Broy./Diag. 0.20E+00    3.4     0.01423093      -814.6229336049 -1.26E-02
     4 Broy./Diag. 0.20E+00    3.0     0.00623235      -814.6109381327  1.20E-02
     5 Broy./Diag. 0.20E+00    3.3     0.00349347      -814.5995639970  1.14E-02
     6 Broy./Diag. 0.20E+00    3.3     0.00146459      -814.5916673846  7.90E-03
     7 Broy./Diag. 0.20E+00    3.1     0.00093017      -814.5905605579  1.11E-03
     8 Broy./Diag. 0.20E+00    3.4     0.00072311      -814.5930269775 -2.47E-03
     9 Broy./Diag. 0.20E+00    3.3     0.00039867      -814.5941510574 -1.12E-03
    10 Broy./Diag. 0.20E+00    3.5     0.00011927      -814.5952927405 -1.14E-03
    11 Broy./Diag. 0.20E+00    3.4     0.00008233      -814.5954514462 -1.59E-04
    12 Broy./Diag. 0.20E+00    3.4     0.00005138      -814.5955447273 -9.33E-05
    13 Broy./Diag. 0.20E+00    3.4     0.00002446      -814.5955131712  3.16E-05

  *** SCF run converged in    13 steps ***


  Electronic density on regular grids:       -559.9999999988        0.0000000012
  Core density on regular grids:              559.9999998894       -0.0000001106
  Total charge density on r-space grids:       -0.0000001094
  Total charge density g-space grids:          -0.0000001094

  Overlap energy of the core charge distribution:               0.00006974403425
  Self energy of the core charge distribution:              -1737.24439639931302
  Core Hamiltonian energy:                                    402.04986577106735
  Hartree energy:                                             710.99494755528463
  Exchange-correlation energy:                               -188.78034061072606
  Dispersion energy:                                           -0.71838331884564
  Electronic entropic energy:                                  -0.89727514779910
  Fermi energy:                                                 0.12611364466296

  Total energy:                                              -814.59551317116052

 ENERGY| Total FORCE_EVAL ( QS ) energy [hartree]           -814.595472330812640

 MD| ***************************************************************************
 MD| Step number                                                              17
 MD| Time [fs]                                                          8.500000
 MD| Conserved quantity [hartree]                            -0.807910723654E+03
 MD| ---------------------------------------------------------------------------
 MD|                                          Instantaneous             Averages
 MD| CPU time per MD step [s]                     47.846084            46.785721
 MD| Energy drift per atom [K]          -0.248314716869E+02  -0.220448157093E+02
 MD| Potential energy [hartree]         -0.814595472331E+03  -0.811798780554E+03
 MD| Kinetic energy [hartree]            0.658881377799E+01   0.386838577408E+01
 MD| Temperature [K]                           14010.642093          8225.846167
 MD| ***************************************************************************

 Number of electrons:                                                        560
 Number of occupied orbitals:                                                440
 Number of molecular orbitals:                                               480

 Number of orbital functions:                                               1300
 Number of independent orbital functions:                                   1300

 Extrapolation method: ASPC


 SCF WAVEFUNCTION OPTIMIZATION

  Step     Update method      Time    Convergence         Total energy    Change
  ------------------------------------------------------------------------------
     1 Broy./Diag. 0.20E+00    2.7     0.08358747      -814.7593079427 -8.15E+02
     2 Broy./Diag. 0.20E+00    3.1     0.03150572      -814.7701715619 -1.09E-02
     3 Broy./Diag. 0.20E+00    3.1     0.01411035      -814.7938225714 -2.37E-02
     4 Broy./Diag. 0.20E+00    3.2     0.00642071      -814.7865011482  7.32E-03
     5 Broy./Diag. 0.20E+00    3.2     0.00349887      -814.7788986778  7.60E-03
     6 Broy./Diag. 0.20E+00    3.4     0.00149475      -814.7719000459  7.00E-03
     7 Broy./Diag. 0.20E+00    3.3     0.00088629      -814.7712711705  6.29E-04
     8 Broy./Diag. 0.20E+00    3.3     0.00072013      -814.7738406644 -2.57E-03
     9 Broy./Diag. 0.20E+00    3.5     0.00041657      -814.7749210523 -1.08E-03
    10 Broy./Diag. 0.20E+00    3.4     0.00013066      -814.7760172384 -1.10E-03
[...]
  Fermi energy:                                                 0.12440243759936

  Total energy:                                              -816.44127279268537

 ENERGY| Total FORCE_EVAL ( QS ) energy [hartree]           -816.441288563709008

 MD| ***************************************************************************
 MD| Step number                                                             101
 MD| Time [fs]                                                         50.500000
 MD| Conserved quantity [hartree]                            -0.807908562722E+03
 MD| ---------------------------------------------------------------------------
 MD|                                          Instantaneous             Averages
 MD| CPU time per MD step [s]                     68.542220            50.663473
 MD| Energy drift per atom [K]          -0.180077958075E+02  -0.197782250927E+02
 MD| Potential energy [hartree]         -0.816441288564E+03  -0.815264174399E+03
 MD| Kinetic energy [hartree]            0.695147248988E+01   0.663237009461E+01
 MD| Temperature [K]                           14781.809952         14103.261491
 MD| ***************************************************************************

 Number of electrons:                                                        560
 Number of occupied orbitals:                                                439
 Number of molecular orbitals:                                               480

 Number of orbital functions:                                               1300
 Number of independent orbital functions:                                   1300

 Extrapolation method: ASPC


 SCF WAVEFUNCTION OPTIMIZATION

  Step     Update method      Time    Convergence         Total energy    Change
  ------------------------------------------------------------------------------
     1 Broy./Diag. 0.20E+00    6.0     0.02661340      -816.4273282565 -8.16E+02
     2 Broy./Diag. 0.20E+00    4.9     0.01062513      -816.4049443268  2.24E-02
     3 Broy./Diag. 0.20E+00    4.8     0.00640619      -816.4174550801 -1.25E-02
     4 Broy./Diag. 0.20E+00    6.2     0.00421993      -816.4236210215 -6.17E-03
     5 Broy./Diag. 0.20E+00    6.4     0.00224419      -816.4301985316 -6.58E-03
     6 Broy./Diag. 0.20E+00    7.3     0.00060650      -816.4330775325 -2.88E-03
     7 Broy./Diag. 0.20E+00    4.8     0.00021194      -816.4337206675 -6.43E-04
     8 Broy./Diag. 0.20E+00    4.2     0.00008670      -816.4334536825  2.67E-04
     9 Broy./Diag. 0.20E+00    4.4     0.00005773      -816.4333139482  1.40E-04
    10 Broy./Diag. 0.20E+00    5.7     0.00003815      -816.4333322914 -1.83E-05

  *** SCF run converged in    10 steps ***


  Electronic density on regular grids:       -559.9999999989        0.0000000011
  Core density on regular grids:              559.9999998896       -0.0000001104
  Total charge density on r-space grids:       -0.0000001092
  Total charge density g-space grids:          -0.0000001092

  Overlap energy of the core charge distribution:               0.00010142334913
  Self energy of the core charge distribution:              -1737.24439639931302
  Core Hamiltonian energy:                                    393.58065237101613
  Hartree energy:                                             715.26119222132377
  Exchange-correlation energy:                               -186.43380658373388
  Dispersion energy:                                           -0.71047831462883
  Electronic entropic energy:                                  -0.88659634401930
  Fermi energy:                                                 0.12441915615111

  Total energy:                                              -816.43333229136636

 ENERGY| Total FORCE_EVAL ( QS ) energy [hartree]           -816.433358006273465

 MD| ***************************************************************************
 MD| Step number                                                             102
 MD| Time [fs]                                                         51.000000
 MD| Conserved quantity [hartree]                            -0.807908557419E+03
 MD| ---------------------------------------------------------------------------
 MD|                                          Instantaneous             Averages
 MD| CPU time per MD step [s]                     63.436582            50.788700
 MD| Energy drift per atom [K]          -0.179910513015E+02  -0.197607037810E+02
 MD| Potential energy [hartree]         -0.816433358006E+03  -0.815275636984E+03
 MD| Kinetic energy [hartree]            0.691402088452E+01   0.663513137686E+01
 MD| Temperature [K]                           14702.171787         14109.133160
 MD| ***************************************************************************

 Number of electrons:                                                        560
 Number of occupied orbitals:                                                440
 Number of molecular orbitals:                                               480

 Number of orbital functions:                                               1300
 Number of independent orbital functions:                                   1300

 Extrapolation method: ASPC


 SCF WAVEFUNCTION OPTIMIZATION

  Step     Update method      Time    Convergence         Total energy    Change
  ------------------------------------------------------------------------------
     1 Broy./Diag. 0.20E+00    4.0     0.02654760      -816.4214166368 -8.16E+02
     2 Broy./Diag. 0.20E+00    5.7     0.01022709      -816.4015824483  1.98E-02
     3 Broy./Diag. 0.20E+00    5.7     0.00624907      -816.4128984487 -1.13E-02
     4 Broy./Diag. 0.20E+00    4.6     0.00416316      -816.4184155227 -5.52E-03
     5 Broy./Diag. 0.20E+00    3.4     0.00223041      -816.4244533172 -6.04E-03
     6 Broy./Diag. 0.20E+00    3.5     0.00061177      -816.4271092530 -2.66E-03
     7 Broy./Diag. 0.20E+00    3.7     0.00021383      -816.4277157479 -6.06E-04
     8 Broy./Diag. 0.20E+00    4.1     0.00008613      -816.4274530932  2.63E-04
     9 Broy./Diag. 0.20E+00    3.2     0.00005614      -816.4273161382  1.37E-04
    10 Broy./Diag. 0.20E+00    3.3     0.00003845      -816.4273348462 -1.87E-05

  *** SCF run converged in    10 steps ***


  Electronic density on regular grids:       -559.9999999989        0.0000000011
  Core density on regular grids:              559.9999998896       -0.0000001104
  Total charge density on r-space grids:       -0.0000001093
  Total charge density g-space grids:          -0.0000001093

  Overlap energy of the core charge distribution:               0.00010343833859
  Self energy of the core charge distribution:              -1737.24439639931302
  Core Hamiltonian energy:                                    393.62487040668361
  Hartree energy:                                             715.23656925412195
  Exchange-correlation energy:                               -186.44808907117255
  Dispersion energy:                                           -0.71025979229443
  Electronic entropic energy:                                  -0.88613202055755
  Fermi energy:                                                 0.12443806361201

  Total energy:                                              -816.42733484620180

 ENERGY| Total FORCE_EVAL ( QS ) energy [hartree]           -816.427372864345557

 MD| ***************************************************************************
 MD| Step number                                                             103
 MD| Time [fs]                                                         51.500000
 MD| Conserved quantity [hartree]                            -0.807908556280E+03
 MD| ---------------------------------------------------------------------------
 MD|                                          Instantaneous             Averages
 MD| CPU time per MD step [s]                     48.178795            50.763361
 MD| Energy drift per atom [K]          -0.179874545665E+02  -0.197434877692E+02
 MD| Potential energy [hartree]         -0.816427372864E+03  -0.815286818885E+03
 MD| Kinetic energy [hartree]            0.689479799097E+01   0.663765241195E+01
 MD| Temperature [K]                           14661.295677         14114.493962
 MD| ***************************************************************************

 Number of electrons:                                                        560
 Number of occupied orbitals:                                                440
 Number of molecular orbitals:                                               480

 Number of orbital functions:                                               1300
 Number of independent orbital functions:                                   1300

 Extrapolation method: ASPC


 SCF WAVEFUNCTION OPTIMIZATION

  Step     Update method      Time    Convergence         Total energy    Change
  ------------------------------------------------------------------------------
     1 Broy./Diag. 0.20E+00    3.6     0.02632805      -816.4174897222 -8.16E+02
     2 Broy./Diag. 0.20E+00    3.2     0.00981796      -816.3995731140  1.79E-02
     3 Broy./Diag. 0.20E+00    3.2     0.00607780      -816.4100283505 -1.05E-02
     4 Broy./Diag. 0.20E+00    4.1     0.00410375      -816.4150357474 -5.01E-03
     5 Broy./Diag. 0.20E+00    3.1     0.00222432      -816.4206269948 -5.59E-03
     6 Broy./Diag. 0.20E+00    4.0     0.00061923      -816.4230942050 -2.47E-03
     7 Broy./Diag. 0.20E+00    3.6     0.00021501      -816.4236874224 -5.93E-04
     8 Broy./Diag. 0.20E+00    3.8     0.00008713      -816.4234410412  2.46E-04
     9 Broy./Diag. 0.20E+00    3.4     0.00005458      -816.4233081545  1.33E-04
    10 Broy./Diag. 0.20E+00    2.9     0.00003846      -816.4233258108 -1.77E-05

  *** SCF run converged in    10 steps ***


  Electronic density on regular grids:       -559.9999999989        0.0000000011
  Core density on regular grids:              559.9999998896       -0.0000001104
  Total charge density on r-space grids:       -0.0000001093
  Total charge density g-space grids:          -0.0000001093

  Overlap energy of the core charge distribution:               0.00010370324265
  Self energy of the core charge distribution:              -1737.24439639931302
  Core Hamiltonian energy:                                    393.66697171984060
  Hartree energy:                                             715.21189978503025
  Exchange-correlation energy:                               -186.46230037147353
  Dispersion energy:                                           -0.71005013682066
  Electronic entropic energy:                                  -0.88555346255058
  Fermi energy:                                                 0.12445888130455

  Total energy:                                              -816.42332581079415

 ENERGY| Total FORCE_EVAL ( QS ) energy [hartree]           -816.423372856792980

 MD| ***************************************************************************
 MD| Step number                                                             104
 MD| Time [fs]                                                         52.000000
 MD| Conserved quantity [hartree]                            -0.807908559353E+03
 MD| ---------------------------------------------------------------------------
 MD|                                          Instantaneous             Averages
 MD| CPU time per MD step [s]                     39.987126            50.659743
 MD| Energy drift per atom [K]          -0.179971554966E+02  -0.197266961127E+02
 MD| Potential energy [hartree]         -0.816423372857E+03  -0.815297747289E+03
 MD| Kinetic energy [hartree]            0.686828714867E+01   0.663987005365E+01
 MD| Temperature [K]                           14604.922263         14119.209618
 MD| ***************************************************************************

 Number of electrons:                                                        560
 Number of occupied orbitals:                                                440
 Number of molecular orbitals:                                               480

 Number of orbital functions:                                               1300
 Number of independent orbital functions:                                   1300

 Extrapolation method: ASPC


 SCF WAVEFUNCTION OPTIMIZATION

  Step     Update method      Time    Convergence         Total energy    Change
  ------------------------------------------------------------------------------
     1 Broy./Diag. 0.20E+00    2.9     0.02607510      -816.4155080241 -8.16E+02
     2 Broy./Diag. 0.20E+00    3.7     0.00949911      -816.3996102686  1.59E-02
     3 Broy./Diag. 0.20E+00    3.6     0.00589909      -816.4091612573 -9.55E-03
     4 Broy./Diag. 0.20E+00    5.5     0.00404367      -816.4136446177 -4.48E-03
     5 Broy./Diag. 0.20E+00    3.1     0.00222291      -816.4187851958 -5.14E-03
     6 Broy./Diag. 0.20E+00    3.6     0.00062761      -816.4210488836 -2.26E-03
     7 Broy./Diag. 0.20E+00    4.7     0.00021596      -816.4216159618 -5.67E-04
     8 Broy./Diag. 0.20E+00    3.7     0.00008979      -816.4213823718  2.34E-04
     9 Broy./Diag. 0.20E+00    3.4     0.00005288      -816.4212542274  1.28E-04
    10 Broy./Diag. 0.20E+00    3.7     0.00003832      -816.4212715578 -1.73E-05

  *** SCF run converged in    10 steps ***


  Electronic density on regular grids:       -559.9999999989        0.0000000011
  Core density on regular grids:              559.9999998895       -0.0000001105
  Total charge density on r-space grids:       -0.0000001093
  Total charge density g-space grids:          -0.0000001093

  Overlap energy of the core charge distribution:               0.00010233885999
  Self energy of the core charge distribution:              -1737.24439639931302
  Core Hamiltonian energy:                                    393.70685617972617
  Hartree energy:                                             715.18725923976513
  Exchange-correlation energy:                               -186.47638531263954
  Dispersion energy:                                           -0.70984820681893
  Electronic entropic energy:                                  -0.88485875974572
  Fermi energy:                                                 0.12448141204188

  Total energy:                                              -816.42127155777951

 ENERGY| Total FORCE_EVAL ( QS ) energy [hartree]           -816.421327958222264

 MD| ***************************************************************************
 MD| Step number                                                             105
 MD| Time [fs]                                                         52.500000
 MD| Conserved quantity [hartree]                            -0.807908566341E+03
 MD| ---------------------------------------------------------------------------
 MD|                                          Instantaneous             Averages
 MD| CPU time per MD step [s]                     43.134350            50.588073
 MD| Energy drift per atom [K]          -0.180192216347E+02  -0.197104344510E+02
 MD| Potential energy [hartree]         -0.816421327958E+03  -0.815308448057E+03
 MD| Kinetic energy [hartree]            0.683153372509E+01   0.664169542195E+01
 MD| Temperature [K]                           14526.768732         14123.091134
 MD| ***************************************************************************

 Number of electrons:                                                        560
 Number of occupied orbitals:                                                440
 Number of molecular orbitals:                                               480

 Number of orbital functions:                                               1300
 Number of independent orbital functions:                                   1300

 Extrapolation method: ASPC


 SCF WAVEFUNCTION OPTIMIZATION

  Step     Update method      Time    Convergence         Total energy    Change
  ------------------------------------------------------------------------------
     1 Broy./Diag. 0.20E+00    2.6     0.02574627      -816.4153844001 -8.16E+02
     2 Broy./Diag. 0.20E+00    3.2     0.00962827      -816.4013571343  1.40E-02
     3 Broy./Diag. 0.20E+00    3.1     0.00574386      -816.4100737885 -8.72E-03
     4 Broy./Diag. 0.20E+00    3.2     0.00399479      -816.4140835785 -4.01E-03
     5 Broy./Diag. 0.20E+00    3.5     0.00222293      -816.4188053754 -4.72E-03
     6 Broy./Diag. 0.20E+00    3.9     0.00063455      -816.4208750832 -2.07E-03
     7 Broy./Diag. 0.20E+00    4.7     0.00022025      -816.4214162790 -5.41E-04
     8 Broy./Diag. 0.20E+00    5.6     0.00009273      -816.4211955465  2.21E-04
     9 Broy./Diag. 0.20E+00    4.5     0.00005213      -816.4210719587  1.24E-04
    10 Broy./Diag. 0.20E+00    4.1     0.00003847      -816.4210887573 -1.68E-05

  *** SCF run converged in    10 steps ***


  Electronic density on regular grids:       -559.9999999988        0.0000000012
  Core density on regular grids:              559.9999998896       -0.0000001104
  Total charge density on r-space grids:       -0.0000001092
  Total charge density g-space grids:          -0.0000001092

  Overlap energy of the core charge distribution:               0.00009958845947
  Self energy of the core charge distribution:              -1737.24439639931302
  Core Hamiltonian energy:                                    393.74443539649508
  Hartree energy:                                             715.16277689555500
  Exchange-correlation energy:                               -186.49030257311745
  Dispersion energy:                                           -0.70965266029482
  Electronic entropic energy:                                  -0.88404837550559
  Fermi energy:                                                 0.12450552885315

  Total energy:                                              -816.42108875725364

 ENERGY| Total FORCE_EVAL ( QS ) energy [hartree]           -816.421154317377614

 MD| ***************************************************************************
 MD| Step number                                                             106
 MD| Time [fs]                                                         53.000000
 MD| Conserved quantity [hartree]                            -0.807908576261E+03
 MD| ---------------------------------------------------------------------------
 MD|                                          Instantaneous             Averages
 MD| CPU time per MD step [s]                     43.893471            50.524916
 MD| Energy drift per atom [K]          -0.180505465488E+02  -0.196947751312E+02
 MD| Potential energy [hartree]         -0.816421154317E+03  -0.815318945286E+03
 MD| Kinetic energy [hartree]            0.682849836125E+01   0.664345771383E+01
 MD| Temperature [K]                           14520.314247         14126.838522
 MD| ***************************************************************************

 Number of electrons:                                                        560
 Number of occupied orbitals:                                                439
 Number of molecular orbitals:                                               480

 Number of orbital functions:                                               1300
 Number of independent orbital functions:                                   1300

 Extrapolation method: ASPC


 SCF WAVEFUNCTION OPTIMIZATION

  Step     Update method      Time    Convergence         Total energy    Change
  ------------------------------------------------------------------------------
     1 Broy./Diag. 0.20E+00    3.5     0.02534901      -816.4169898822 -8.16E+02
     2 Broy./Diag. 0.20E+00    4.3     0.00971969      -816.4043430245  1.26E-02
     3 Broy./Diag. 0.20E+00    4.3     0.00560773      -816.4125034508 -8.16E-03
     4 Broy./Diag. 0.20E+00    3.5     0.00395370      -816.4161519019 -3.65E-03
