 DBCSR| CPU Multiplication driver                                           BLAS (U)
 DBCSR| Multrec recursion limit                                              512 (U)
 DBCSR| Multiplication stack size                                           1000 (D)
 DBCSR| Maximum elements for images                                    UNLIMITED (U)
 DBCSR| Multiplicative factor virtual images                                   1 (U)
 DBCSR| Use multiplication densification                                       T (D)
 DBCSR| Multiplication size stacks                                             3 (U)
 DBCSR| Use memory pool for CPU allocation                                     F (U)
 DBCSR| Number of 3D layers                                               SINGLE (U)
 DBCSR| Use MPI memory allocation                                              F (U)
 DBCSR| Use RMA algorithm                                                      F (U)
 DBCSR| Use Communication thread                                               T (U)
 DBCSR| Communication thread load                                             53 (D)
 DBCSR| MPI: My process id                                                     0
 DBCSR| MPI: Number of processes                                               6
 DBCSR| OMP: Current number of threads                                        10
 DBCSR| OMP: Max number of threads                                            10
 DBCSR| Split modifier for TAS multiplication algorithm                  1.0E+00 (U)


  **** **** ******  **  PROGRAM STARTED AT               2025-10-01 13:13:32.249
 ***** ** ***  *** **   PROGRAM STARTED ON                                   Mac
 **    ****   ******    PROGRAM STARTED BY                           jdmusgraves
 ***** **    ** ** **   PROGRAM PROCESS ID                                 59738
  **** **  *******  **  PROGRAM STARTED IN /Users/jdmusgraves/GitHub/local_shake
                                           down_kit

 CP2K| version string:                                       CP2K version 2025.1
 CP2K| source code revision number:                                             
 CP2K| cp2kflags: omp libint fftw3 libxc parallel scalapack no_statm_access     
 CP2K| is freely available from                            https://www.cp2k.org/
 CP2K| Program compiled at                                   2025-01-01 12:26:53
 CP2K| Program compiled on                                                      
 CP2K| Program compiled for                                                arm64
 CP2K| Data directory path                         /opt/homebrew/share/cp2k/data
 CP2K| Input file name                                 inputs/md_loose_smear.inp

 GLOBAL| Force Environment number                                              1
 GLOBAL| Basis set file name                                        BASIS_MOLOPT
 GLOBAL| Potential file name                                      GTH_POTENTIALS
 GLOBAL| MM Potential file name                                     MM_POTENTIAL
 GLOBAL| Coordinate file name                          inputs/as4se6_10_seed.xyz
 GLOBAL| Method name                                                        CP2K
 GLOBAL| Project name                                             md_loose_smear
 GLOBAL| Run type                                                             MD
 GLOBAL| FFT library                                                       FFTW3
 GLOBAL| Diagonalization library                                       ScaLAPACK
 GLOBAL| DGEMM library                                                      BLAS
 GLOBAL| Orthonormality check for eigenvectors                          DISABLED
 GLOBAL| Matrix multiplication library                                 ScaLAPACK
 GLOBAL| All-to-all communication in single precision                          F
 GLOBAL| FFTs using library dependent lengths                                  F
 GLOBAL| Grid backend                                                       AUTO
 GLOBAL| Global print level                                                  LOW
 GLOBAL| MPI I/O enabled                                                       T
 GLOBAL| Total number of message passing processes                             6
 GLOBAL| Number of threads for this process                                   10
 GLOBAL| This output is from process                                           0
 GLOBAL| OpenMP stack size per thread (OMP_STACKSIZE)                    default
 GLOBAL| CPU model name                                                  UNKNOWN
 GLOBAL| CPUID                                                              2000

 MEMORY| system memory details [Kb]
 MEMORY|                        rank 0           min           max       average
 MEMORY| MemTotal                    0             0             0             0
 MEMORY| MemFree                     0             0             0             0
 MEMORY| Buffers                     0             0             0             0
 MEMORY| Cached                      0             0             0             0
 MEMORY| Slab                        0             0             0             0
 MEMORY| SReclaimable                0             0             0             0
 MEMORY| MemLikelyFree               0             0             0             0


 GENERATE|  Preliminary Number of Bonds generated:                             0
 GENERATE|  Achieved consistency in connectivity generation.

 *******************************************************************************
 *******************************************************************************
 **                                                                           **
 **     #####                         ##              ##                      **
 **    ##   ##            ##          ##              ##                      **
 **   ##     ##                       ##            ######                    **
 **   ##     ##  ##   ##  ##   #####  ##  ##   ####   ##    #####    #####    **
 **   ##     ##  ##   ##  ##  ##      ## ##   ##      ##   ##   ##  ##   ##   **
 **   ##  ## ##  ##   ##  ##  ##      ####     ###    ##   ######   ######    **
 **    ##  ###   ##   ##  ##  ##      ## ##      ##   ##   ##       ##        **
 **     #######   #####   ##   #####  ##  ##  ####    ##    #####   ##        **
 **           ##                                                    ##        **
 **                                                                           **
 **                                                ... make the atoms dance   **
 **                                                                           **
 **            Copyright (C) by CP2K developers group (2000-2025)             **
 **                      J. Chem. Phys. 152, 194103 (2020)                    **
 **                                                                           **
 *******************************************************************************


 TOTAL NUMBERS AND MAXIMUM NUMBERS

  Total number of            - Atomic kinds:                                   2
                             - Atoms:                                         10
                             - Shell sets:                                    10
                             - Shells:                                        50
                             - Primitive Cartesian functions:                 40
                             - Cartesian basis functions:                    140
                             - Spherical basis functions:                    130

  Maximum angular momentum of the orbital basis functions:                     2


 SCF PARAMETERS         Density guess:                                    ATOMIC
                        --------------------------------------------------------
                        max_scf:                                              20
                        max_scf_history:                                       0
                        max_diis:                                              4
                        --------------------------------------------------------
                        eps_scf:                                        1.00E-04
                        eps_scf_history:                                0.00E+00
                        eps_diis:                                       1.00E-01
                        eps_eigval:                                     1.00E-05
                        --------------------------------------------------------
                        level_shift [a.u.]:                             0.000000
                        added MOs                                        20    0
                        --------------------------------------------------------
                        Mixing method:                            BROYDEN_MIXING
                                                charge density mixing in g-space
                        --------------------------------------------------------
                        Smear method:                                FERMI_DIRAC
                        Electronic temperature [K]:                       3000.0
                        Electronic temperature [a.u.]:                  9.50E-03
                        Accuracy threshold:                             1.00E-10
                        --------------------------------------------------------
                        No outer SCF

 MD_PAR| Molecular dynamics protocol (MD input parameters)
 MD_PAR| Ensemble type                                                       NVT
 MD_PAR| Number of time steps                                                 50
 MD_PAR| Time step [fs]                                                 0.500000
 MD_PAR| Temperature [K]                                              300.000000
 MD_PAR| Temperature tolerance [K]                                      0.000000
 MD_PAR| Print MD information every                                    1 step(s)
 MD_PAR| File type   Print frequency [steps]                          File names
 MD_PAR| Coordinates         10 md_loose_smear-md_loose_smear-pos-1.xyz-pos-1.xy
 MD_PAR| Velocities          10 md_loose_smear-md_loose_smear-vel-1.xyz-vel-1.xy
 MD_PAR| Energies             1                            md_loose_smear-1.ener
 MD_PAR| Dump                20                         md_loose_smear-1.restart

 ROT| Rotational analysis information
 ROT| Principal axes and moments of inertia [a.u.]
 ROT|                           1                   2                   3
 ROT| Eigenvalues      6.31551038905E+07   1.06093105645E+08   1.30638895369E+08
 ROT|      x              0.842770580719      0.391383760643     -0.369535519511
 ROT|      y              0.343867553638     -0.919640297963     -0.189780999886
 ROT|      z              0.414116956705     -0.032870568407      0.909629964272
 ROT| Number of rotovibrational vectors                                        6

 DOF| Calculation of degrees of freedom
 DOF| Number of atoms                                                         10
 DOF| Number of intramolecular constraints                                     0
 DOF| Number of intermolecular constraints                                     0
 DOF| Invariants (translations + rotations)                                    3
 DOF| Degrees of freedom                                                      27

 DOF| Restraints information
 DOF| Number of intramolecular restraints                                      0
 DOF| Number of intermolecular restraints                                      0

 THERMOSTAT| Thermostat information for PARTICLES
 THERMOSTAT| Type of thermostat            Canonical Sampling/Velocity Rescaling
 THERMOSTAT| CSVR time constant [fs]                                  500.000000
 THERMOSTAT| Initial kinetic energy                           0.000000000000E+00
 THERMOSTAT| End of thermostat information for PARTICLES

 MD_VEL| Velocities initialization
 MD_VEL| Initial temperature [K]                                      300.000000
 MD_VEL| COM velocity            -0.0000000000     0.0000000000     0.0000000000

 Number of electrons:                                                         56
 Number of occupied orbitals:                                                 28
 Number of molecular orbitals:                                                48

 Number of orbital functions:                                                130
 Number of independent orbital functions:                                    130

 Extrapolation method: initial_guess


 SCF WAVEFUNCTION OPTIMIZATION

  Step     Update method      Time    Convergence         Total energy    Change
  ------------------------------------------------------------------------------
     1 NoMix/Diag. 0.10E+00    6.7     0.80979223       -80.7054519071 -8.07E+01
     2 Broy./Diag. 0.10E+00    7.6     0.86522137       -80.5429446911  1.63E-01
     3 Broy./Diag. 0.10E+00    7.0     0.09661277       -81.4651150624 -9.22E-01
     4 Broy./Diag. 0.10E+00    8.1     0.12185968       -81.4740720900 -8.96E-03
     5 Broy./Diag. 0.10E+00    9.8     0.07238262       -81.4572653660  1.68E-02
     6 Broy./Diag. 0.10E+00    9.1     0.03393055       -81.3798935940  7.74E-02
     7 Broy./Diag. 0.10E+00    8.9     0.02856982       -81.2699915665  1.10E-01
     8 Broy./Diag. 0.10E+00    8.9     0.03234894       -81.1834359868  8.66E-02
     9 Broy./Diag. 0.10E+00   13.1     0.01300001       -81.1262091144  5.72E-02
    10 Broy./Diag. 0.10E+00    9.3     0.00281135       -81.1212995038  4.91E-03
    11 Broy./Diag. 0.10E+00    7.0     0.00465068       -81.1125620847  8.74E-03
    12 Broy./Diag. 0.10E+00    8.6     0.00411470       -81.1115955663  9.67E-04
    13 Broy./Diag. 0.10E+00    8.5     0.00348797       -81.1105997838  9.96E-04
    14 Broy./Diag. 0.10E+00    8.1     0.00208618       -81.1131173354 -2.52E-03
    15 Broy./Diag. 0.10E+00    9.4     0.00300565       -81.1200768703 -6.96E-03
    16 Broy./Diag. 0.10E+00    7.3     0.00217627       -81.1256487512 -5.57E-03
    17 Broy./Diag. 0.10E+00    8.6     0.00186834       -81.1310613370 -5.41E-03
    18 Broy./Diag. 0.10E+00    8.1     0.00131574       -81.1327818248 -1.72E-03
    19 Broy./Diag. 0.10E+00    9.3     0.00127258       -81.1334497032 -6.68E-04
    20 Broy./Diag. 0.10E+00   12.1     0.00110643       -81.1307035561  2.75E-03

  Leaving inner SCF loop after reaching    20 steps.


  Electronic density on regular grids:        -56.0000000000        0.0000000000
  Core density on regular grids:               55.9999999889       -0.0000000111
  Total charge density on r-space grids:       -0.0000000110
  Total charge density g-space grids:          -0.0000000110

  Overlap energy of the core charge distribution:               0.00000004585315
  Self energy of the core charge distribution:               -173.72443963993129
  Core Hamiltonian energy:                                     37.68271469005659
  Hartree energy:                                              72.69732613540847
  Exchange-correlation energy:                                -17.56943974700681
  Dispersion energy:                                           -0.00501785459117
  Electronic entropic energy:                                  -0.21183679875141
  Fermi energy:                                                -0.17567818553737

  Total energy:                                               -81.13070355608424

 *** WARNING in qs_scf.F:609 :: SCF run NOT converged ***


 ENERGY| Total FORCE_EVAL ( QS ) energy [hartree]            -81.123084203127874

 MD_INI| MD initialization
 MD_INI| Potential energy [hartree]                          -0.811230842031E+02
 MD_INI| Kinetic energy [hartree]                             0.128256021403E-01
 MD_INI| Temperature [K]                                              300.000000
 MD_INI| Cell volume [bohr^3]                                 2.277562921793E+04
 MD_INI| Cell volume [ang^3]                                  3.375000000000E+03
 MD_INI| Cell lengths [bohr]      2.83458920E+01  2.83458920E+01  2.83458920E+01
 MD_INI| Cell lengths [ang]       1.50000000E+01  1.50000000E+01  1.50000000E+01
 MD_INI| Cell angles [deg]        9.00000000E+01  9.00000000E+01  9.00000000E+01

 Number of electrons:                                                         56
 Number of occupied orbitals:                                                 40
 Number of molecular orbitals:                                                48

 Number of orbital functions:                                                130
 Number of independent orbital functions:                                    130

 Extrapolation method: ASPC


 SCF WAVEFUNCTION OPTIMIZATION

  Step     Update method      Time    Convergence         Total energy    Change
  ------------------------------------------------------------------------------
     1 Broy./Diag. 0.10E+00    4.9     0.05609009       -81.1230852253 -8.11E+01
     2 Broy./Diag. 0.10E+00   10.9     0.09439905       -81.1423449060 -1.93E-02
     3 Broy./Diag. 0.10E+00    8.1     0.03770332       -81.1022962598  4.00E-02
     4 Broy./Diag. 0.10E+00    8.4     0.00431841       -81.1189237205 -1.66E-02
     5 Broy./Diag. 0.10E+00    8.2     0.00259368       -81.1204891682 -1.57E-03
     6 Broy./Diag. 0.10E+00    9.0     0.00118866       -81.1208339851 -3.45E-04
     7 Broy./Diag. 0.10E+00    6.9     0.00042027       -81.1218784465 -1.04E-03
     8 Broy./Diag. 0.10E+00    9.7     0.00041841       -81.1225224559 -6.44E-04
     9 Broy./Diag. 0.10E+00    9.6     0.00041676       -81.1229677972 -4.45E-04
    10 Broy./Diag. 0.10E+00   11.4     0.00028954       -81.1233431414 -3.75E-04
    11 Broy./Diag. 0.10E+00    7.4     0.00021896       -81.1233343207  8.82E-06
    12 Broy./Diag. 0.10E+00    9.9     0.00020947       -81.1233996639 -6.53E-05
    13 Broy./Diag. 0.10E+00   11.7     0.00015435       -81.1233257588  7.39E-05
    14 Broy./Diag. 0.10E+00    8.3     0.00011207       -81.1232433582  8.24E-05
    15 Broy./Diag. 0.10E+00    8.6     0.00012395       -81.1232420779  1.28E-06
    16 Broy./Diag. 0.10E+00    9.9     0.00008846       -81.1231945284  4.75E-05

  *** SCF run converged in    16 steps ***


  Electronic density on regular grids:        -56.0000000000        0.0000000000
  Core density on regular grids:               55.9999999889       -0.0000000111
  Total charge density on r-space grids:       -0.0000000110
  Total charge density g-space grids:          -0.0000000110

  Overlap energy of the core charge distribution:               0.00000004470968
  Self energy of the core charge distribution:               -173.72443963993129
  Core Hamiltonian energy:                                     37.68310370169290
  Hartree energy:                                              72.70401683319392
  Exchange-correlation energy:                                -17.56886148826396
  Dispersion energy:                                           -0.00501652725475
  Electronic entropic energy:                                  -0.21199962304611
  Fermi energy:                                                -0.17541299849514

  Total energy:                                               -81.12319452844712

 ENERGY| Total FORCE_EVAL ( QS ) energy [hartree]            -81.123103596223785

 MD| ***************************************************************************
 MD| Step number                                                               1
 MD| Time [fs]                                                          0.500000
 MD| Conserved quantity [hartree]                            -0.811102744950E+02
 MD| ---------------------------------------------------------------------------
 MD|                                          Instantaneous             Averages
 MD| CPU time per MD step [s]                    343.946221           343.946221
 MD| Energy drift per atom [K]          -0.501893128714E+00   0.000000000000E+00
 MD| Potential energy [hartree]         -0.811231035962E+02  -0.811231035962E+02
 MD| Kinetic energy [hartree]            0.127839391194E-01   0.127839391194E-01
 MD| Temperature [K]                             299.025472           299.025472
 MD| ***************************************************************************

 Number of electrons:                                                         56
 Number of occupied orbitals:                                                 40
 Number of molecular orbitals:                                                48

 Number of orbital functions:                                                130
 Number of independent orbital functions:                                    130

 Extrapolation method: ASPC


 SCF WAVEFUNCTION OPTIMIZATION

  Step     Update method      Time    Convergence         Total energy    Change
  ------------------------------------------------------------------------------
     1 Broy./Diag. 0.10E+00    6.2     0.00298973       -81.1231374081 -8.11E+01
     2 Broy./Diag. 0.10E+00   10.5     0.00369403       -81.1258102577 -2.67E-03
     3 Broy./Diag. 0.10E+00    8.3     0.00172478       -81.1256666679  1.44E-04
     4 Broy./Diag. 0.10E+00    8.0     0.00072426       -81.1250054808  6.61E-04
     5 Broy./Diag. 0.10E+00   11.8     0.00018647       -81.1242333099  7.72E-04
     6 Broy./Diag. 0.10E+00    8.7     0.00024019       -81.1236661946  5.67E-04
     7 Broy./Diag. 0.10E+00    7.6     0.00006320       -81.1234211512  2.45E-04

  *** SCF run converged in     7 steps ***


  Electronic density on regular grids:        -56.0000000000        0.0000000000
  Core density on regular grids:               55.9999999889       -0.0000000111
  Total charge density on r-space grids:       -0.0000000110
  Total charge density g-space grids:          -0.0000000110

  Overlap energy of the core charge distribution:               0.00000004359081
  Self energy of the core charge distribution:               -173.72443963993129
  Core Hamiltonian energy:                                     37.68213507787919
  Hartree energy:                                              72.70447021149958
  Exchange-correlation energy:                                -17.56857232309492
  Dispersion energy:                                           -0.00501513208985
  Electronic entropic energy:                                  -0.21200211957136
  Fermi energy:                                                -0.17543517797306

  Total energy:                                               -81.12342115120224

 ENERGY| Total FORCE_EVAL ( QS ) energy [hartree]            -81.123142687700962

 MD| ***************************************************************************
 MD| Step number                                                               2
 MD| Time [fs]                                                          1.000000
 MD| Conserved quantity [hartree]                            -0.811102745466E+02
 MD| ---------------------------------------------------------------------------
 MD|                                          Instantaneous             Averages
 MD| CPU time per MD step [s]                     76.226221           210.086221
 MD| Energy drift per atom [K]          -0.503523362264E+00  -0.251761681132E+00
 MD| Potential energy [hartree]         -0.811231426877E+02  -0.811231231420E+02
 MD| Kinetic energy [hartree]            0.127868803834E-01   0.127854097514E-01
 MD| Temperature [K]                             299.094270           299.059871
 MD| ***************************************************************************

 Number of electrons:                                                         56
 Number of occupied orbitals:                                                 40
 Number of molecular orbitals:                                                48

 Number of orbital functions:                                                130
 Number of independent orbital functions:                                    130

 Extrapolation method: ASPC


 SCF WAVEFUNCTION OPTIMIZATION

  Step     Update method      Time    Convergence         Total energy    Change
  ------------------------------------------------------------------------------
     1 Broy./Diag. 0.10E+00    5.8     0.00197540       -81.1232129421 -8.11E+01
     2 Broy./Diag. 0.10E+00    7.1     0.00228527       -81.1215229589  1.69E-03
     3 Broy./Diag. 0.10E+00    7.2     0.00093751       -81.1225539095 -1.03E-03
     4 Broy./Diag. 0.10E+00    9.3     0.00041517       -81.1223439552  2.10E-04
     5 Broy./Diag. 0.10E+00   10.0     0.00025577       -81.1226027335 -2.59E-04
     6 Broy./Diag. 0.10E+00    7.7     0.00025419       -81.1228720675 -2.69E-04
     7 Broy./Diag. 0.10E+00    7.8     0.00018162       -81.1229985641 -1.26E-04
     8 Broy./Diag. 0.10E+00    9.3     0.00006372       -81.1231175238 -1.19E-04

  *** SCF run converged in     8 steps ***


  Electronic density on regular grids:        -56.0000000000        0.0000000000
  Core density on regular grids:               55.9999999889       -0.0000000111
  Total charge density on r-space grids:       -0.0000000110
  Total charge density g-space grids:          -0.0000000110

  Overlap energy of the core charge distribution:               0.00000004249907
  Self energy of the core charge distribution:               -173.72443963993129
  Core Hamiltonian energy:                                     37.68150226848881
  Hartree energy:                                              72.70515141276367
  Exchange-correlation energy:                                -17.56829591592098
  Dispersion energy:                                           -0.00501367114061
  Electronic entropic energy:                                  -0.21202198443340
  Fermi energy:                                                -0.17542514738904

  Total energy:                                               -81.12311752376296

 ENERGY| Total FORCE_EVAL ( QS ) energy [hartree]            -81.123217039314298

 MD| ***************************************************************************
 MD| Step number                                                               3
 MD| Time [fs]                                                          1.500000
 MD| Conserved quantity [hartree]                            -0.811102745795E+02
 MD| ---------------------------------------------------------------------------
 MD|                                          Instantaneous             Averages
 MD| CPU time per MD step [s]                     82.672445           167.614962
 MD| Energy drift per atom [K]          -0.504561731481E+00  -0.336028364582E+00
 MD| Potential energy [hartree]         -0.811232170393E+02  -0.811231544411E+02
 MD| Kinetic energy [hartree]            0.130316969653E-01   0.128675054894E-01
 MD| Temperature [K]                             304.820705           300.980149
 MD| ***************************************************************************

 Number of electrons:                                                         56
 Number of occupied orbitals:                                                 40
 Number of molecular orbitals:                                                48

 Number of orbital functions:                                                130
 Number of independent orbital functions:                                    130

 Extrapolation method: ASPC


 SCF WAVEFUNCTION OPTIMIZATION

  Step     Update method      Time    Convergence         Total energy    Change
  ------------------------------------------------------------------------------
     1 Broy./Diag. 0.10E+00    5.1     0.00223026       -81.1233234491 -8.11E+01
     2 Broy./Diag. 0.10E+00    9.3     0.00246780       -81.1256255994 -2.30E-03
     3 Broy./Diag. 0.10E+00    7.7     0.00092554       -81.1249357757  6.90E-04
     4 Broy./Diag. 0.10E+00    9.1     0.00034614       -81.1249437187 -7.94E-06
     5 Broy./Diag. 0.10E+00   10.6     0.00027676       -81.1244034391  5.40E-04
     6 Broy./Diag. 0.10E+00    8.0     0.00016888       -81.1240205898  3.83E-04
     7 Broy./Diag. 0.10E+00   11.3     0.00015349       -81.1238030539  2.18E-04
     8 Broy./Diag. 0.10E+00    8.5     0.00007609       -81.1235705080  2.33E-04

  *** SCF run converged in     8 steps ***


  Electronic density on regular grids:        -56.0000000000        0.0000000000
  Core density on regular grids:               55.9999999890       -0.0000000110
  Total charge density on r-space grids:       -0.0000000110
  Total charge density g-space grids:          -0.0000000110

  Overlap energy of the core charge distribution:               0.00000004143123
  Self energy of the core charge distribution:               -173.72443963993129
  Core Hamiltonian energy:                                     37.68056148002665
  Hartree energy:                                              72.70546929110807
  Exchange-correlation energy:                                -17.56814654508615
  Dispersion energy:                                           -0.00501213941654
  Electronic entropic energy:                                  -0.21200701154934
  Fermi energy:                                                -0.17543680808932

  Total energy:                                               -81.12357050804100

 ENERGY| Total FORCE_EVAL ( QS ) energy [hartree]            -81.123327044831839

 MD| ***************************************************************************
 MD| Step number                                                               4
 MD| Time [fs]                                                          2.000000
 MD| Conserved quantity [hartree]                            -0.811102745698E+02
 MD| ---------------------------------------------------------------------------
 MD|                                          Instantaneous             Averages
 MD| CPU time per MD step [s]                     85.653999           147.124721
 MD| Energy drift per atom [K]          -0.504256107144E+00  -0.378085300223E+00
 MD| Potential energy [hartree]         -0.811233270448E+02  -0.811231975920E+02
 MD| Kinetic energy [hartree]            0.131901733093E-01   0.129481724444E-01
 MD| Temperature [K]                             308.527580           302.867007
 MD| ***************************************************************************

 Number of electrons:                                                         56
 Number of occupied orbitals:                                                 40
 Number of molecular orbitals:                                                48

 Number of orbital functions:                                                130
 Number of independent orbital functions:                                    130

 Extrapolation method: ASPC


 SCF WAVEFUNCTION OPTIMIZATION

  Step     Update method      Time    Convergence         Total energy    Change
  ------------------------------------------------------------------------------
     1 Broy./Diag. 0.10E+00    6.5     0.00238016       -81.1234685814 -8.11E+01
     2 Broy./Diag. 0.10E+00    6.5     0.00365762       -81.1217369064  1.73E-03
     3 Broy./Diag. 0.10E+00   10.7     0.00152963       -81.1234315593 -1.69E-03
     4 Broy./Diag. 0.10E+00   11.5     0.00033619       -81.1228984119  5.33E-04
     5 Broy./Diag. 0.10E+00    7.3     0.00028108       -81.1230188039 -1.20E-04
     6 Broy./Diag. 0.10E+00    8.4     0.00026005       -81.1232282804 -2.09E-04
     7 Broy./Diag. 0.10E+00    8.8     0.00010026       -81.1232961804 -6.79E-05
     8 Broy./Diag. 0.10E+00    8.1     0.00006847       -81.1233750894 -7.89E-05

  *** SCF run converged in     8 steps ***


  Electronic density on regular grids:        -56.0000000000        0.0000000000
  Core density on regular grids:               55.9999999890       -0.0000000110
  Total charge density on r-space grids:       -0.0000000110
  Total charge density g-space grids:          -0.0000000110

  Overlap energy of the core charge distribution:               0.00000004039553
  Self energy of the core charge distribution:               -173.72443963993129
  Core Hamiltonian energy:                                     37.67998012011833
  Hartree energy:                                              72.70603440867370
  Exchange-correlation energy:                                -17.56794393862929
  Dispersion energy:                                           -0.00501054836432
  Electronic entropic energy:                                  -0.21199657481849
  Fermi energy:                                                -0.17543228506820

  Total energy:                                               -81.12337508937730

 ENERGY| Total FORCE_EVAL ( QS ) energy [hartree]            -81.123472023199824

 MD| ***************************************************************************
 MD| Step number                                                               5
 MD| Time [fs]                                                          2.500000
 MD| Conserved quantity [hartree]                            -0.811102745702E+02
 MD| ---------------------------------------------------------------------------
 MD|                                          Instantaneous             Averages
 MD| CPU time per MD step [s]                     86.381603           134.976098
 MD| Energy drift per atom [K]          -0.504267839973E+00  -0.403321808173E+00
 MD| Potential energy [hartree]         -0.811234720232E+02  -0.811232524783E+02
 MD| Kinetic energy [hartree]            0.134122193976E-01   0.130409818350E-01
 MD| Temperature [K]                             313.721397           305.037885
 MD| ***************************************************************************

 Number of electrons:                                                         56
 Number of occupied orbitals:                                                 40
 Number of molecular orbitals:                                                48

 Number of orbital functions:                                                130
 Number of independent orbital functions:                                    130

 Extrapolation method: ASPC


 SCF WAVEFUNCTION OPTIMIZATION

  Step     Update method      Time    Convergence         Total energy    Change
  ------------------------------------------------------------------------------
     1 Broy./Diag. 0.10E+00    6.2     0.00219917       -81.1236510300 -8.11E+01
     2 Broy./Diag. 0.10E+00   11.1     0.00232724       -81.1258983681 -2.25E-03
     3 Broy./Diag. 0.10E+00    8.2     0.00084698       -81.1253520478  5.46E-04
     4 Broy./Diag. 0.10E+00   10.7     0.00033148       -81.1252690889  8.30E-05
     5 Broy./Diag. 0.10E+00   11.6     0.00024073       -81.1248017431  4.67E-04
     6 Broy./Diag. 0.10E+00    8.3     0.00016242       -81.1244030659  3.99E-04
     7 Broy./Diag. 0.10E+00    7.6     0.00016010       -81.1241670046  2.36E-04
     8 Broy./Diag. 0.10E+00    7.7     0.00007369       -81.1239185365  2.48E-04

  *** SCF run converged in     8 steps ***


  Electronic density on regular grids:        -56.0000000000        0.0000000000
  Core density on regular grids:               55.9999999890       -0.0000000110
  Total charge density on r-space grids:       -0.0000000110
  Total charge density g-space grids:          -0.0000000110

  Overlap energy of the core charge distribution:               0.00000003937753
  Self energy of the core charge distribution:               -173.72443963993129
  Core Hamiltonian energy:                                     37.67906306775597
  Hartree energy:                                              72.70630142883067
  Exchange-correlation energy:                                -17.56787715411539
  Dispersion energy:                                           -0.00500887528894
  Electronic entropic energy:                                  -0.21196124536800
  Fermi energy:                                                -0.17543760305377

  Total energy:                                               -81.12391853646236

 ENERGY| Total FORCE_EVAL ( QS ) energy [hartree]            -81.123654274027288

 MD| ***************************************************************************
 MD| Step number                                                               6
 MD| Time [fs]                                                          3.000000
 MD| Conserved quantity [hartree]                            -0.811102745516E+02
 MD| ---------------------------------------------------------------------------
 MD|                                          Instantaneous             Averages
 MD| CPU time per MD step [s]                     87.685829           127.094386
 MD| Energy drift per atom [K]          -0.503681234456E+00  -0.420048379220E+00
 MD| Potential energy [hartree]         -0.811236542740E+02  -0.811233194442E+02
 MD| Kinetic energy [hartree]            0.137363567414E-01   0.131568776527E-01
 MD| Temperature [K]                             321.303201           307.748771
 MD| ***************************************************************************

 Number of electrons:                                                         56
 Number of occupied orbitals:                                                 40
 Number of molecular orbitals:                                                48

 Number of orbital functions:                                                130
 Number of independent orbital functions:                                    130

 Extrapolation method: ASPC


 SCF WAVEFUNCTION OPTIMIZATION

  Step     Update method      Time    Convergence         Total energy    Change
  ------------------------------------------------------------------------------
     1 Broy./Diag. 0.10E+00    7.6     0.00204921       -81.1238691270 -8.11E+01
     2 Broy./Diag. 0.10E+00    8.7     0.00255747       -81.1229733376  8.96E-04
     3 Broy./Diag. 0.10E+00    7.3     0.00119228       -81.1242104245 -1.24E-03
     4 Broy./Diag. 0.10E+00    7.8     0.00032753       -81.1237434954  4.67E-04
     5 Broy./Diag. 0.10E+00    8.1     0.00021075       -81.1238085314 -6.50E-05
     6 Broy./Diag. 0.10E+00    8.2     0.00018829       -81.1238469022 -3.84E-05
     7 Broy./Diag. 0.10E+00    6.9     0.00012015       -81.1238223707  2.45E-05
     8 Broy./Diag. 0.10E+00    6.7     0.00006899       -81.1238575779 -3.52E-05

  *** SCF run converged in     8 steps ***


  Electronic density on regular grids:        -56.0000000000        0.0000000000
  Core density on regular grids:               55.9999999890       -0.0000000110
  Total charge density on r-space grids:       -0.0000000110
  Total charge density g-space grids:          -0.0000000110

  Overlap energy of the core charge distribution:               0.00000003838788
  Self energy of the core charge distribution:               -173.72443963993129
  Core Hamiltonian energy:                                     37.67849186714251
  Hartree energy:                                              72.70676587051672
  Exchange-correlation energy:                                -17.56774631883239
  Dispersion energy:                                           -0.00500713682594
  Electronic entropic energy:                                  -0.21192324923891
  Fermi energy:                                                -0.17543678059632

  Total energy:                                               -81.12385757788627

 ENERGY| Total FORCE_EVAL ( QS ) energy [hartree]            -81.123872356105636

 MD| ***************************************************************************
 MD| Step number                                                               7
 MD| Time [fs]                                                          3.500000
 MD| Conserved quantity [hartree]                            -0.811102745478E+02
 MD| ---------------------------------------------------------------------------
 MD|                                          Instantaneous             Averages
 MD| CPU time per MD step [s]                     81.496678           120.580428
 MD| Energy drift per atom [K]          -0.503560025446E+00  -0.431978614395E+00
 MD| Potential energy [hartree]         -0.811238723561E+02  -0.811233984316E+02
 MD| Kinetic energy [hartree]            0.139040645056E-01   0.132636186317E-01
 MD| Temperature [K]                             325.226005           310.245519
 MD| ***************************************************************************

 Number of electrons:                                                         56
 Number of occupied orbitals:                                                 40
 Number of molecular orbitals:                                                48

 Number of orbital functions:                                                130
 Number of independent orbital functions:                                    130

 Extrapolation method: ASPC


 SCF WAVEFUNCTION OPTIMIZATION

  Step     Update method      Time    Convergence         Total energy    Change
  ------------------------------------------------------------------------------
     1 Broy./Diag. 0.10E+00    5.9     0.00227391       -81.1241219154 -8.11E+01
     2 Broy./Diag. 0.10E+00    9.5     0.00234577       -81.1261266312 -2.00E-03
     3 Broy./Diag. 0.10E+00   11.0     0.00067181       -81.1257941021  3.33E-04
     4 Broy./Diag. 0.10E+00   10.3     0.00034330       -81.1256400486  1.54E-04
     5 Broy./Diag. 0.10E+00    8.5     0.00021918       -81.1252008360  4.39E-04
     6 Broy./Diag. 0.10E+00   10.8     0.00017568       -81.1248428516  3.58E-04
     7 Broy./Diag. 0.10E+00    8.6     0.00012627       -81.1245855120  2.57E-04
     8 Broy./Diag. 0.10E+00    7.3     0.00007040       -81.1243762353  2.09E-04

  *** SCF run converged in     8 steps ***


  Electronic density on regular grids:        -56.0000000000        0.0000000000
  Core density on regular grids:               55.9999999890       -0.0000000110
  Total charge density on r-space grids:       -0.0000000110
  Total charge density g-space grids:          -0.0000000110

  Overlap energy of the core charge distribution:               0.00000003743154
  Self energy of the core charge distribution:               -173.72443963993129
  Core Hamiltonian energy:                                     37.67769769436580
  Hartree energy:                                              72.70698210703678
  Exchange-correlation energy:                                -17.56774821119433
  Dispersion energy:                                           -0.00500534269690
  Electronic entropic energy:                                  -0.21186660247513
  Fermi energy:                                                -0.17543840373248

  Total energy:                                               -81.12437623528355

 ENERGY| Total FORCE_EVAL ( QS ) energy [hartree]            -81.124125178978730

 MD| ***************************************************************************
 MD| Step number                                                               8
 MD| Time [fs]                                                          4.000000
 MD| Conserved quantity [hartree]                            -0.811102745297E+02
 MD| ---------------------------------------------------------------------------
 MD|                                          Instantaneous             Averages
 MD| CPU time per MD step [s]                     94.195096           117.282262
 MD| Energy drift per atom [K]          -0.502989192340E+00  -0.440854936638E+00
 MD| Potential energy [hartree]         -0.811241251790E+02  -0.811234892750E+02
 MD| Kinetic energy [hartree]            0.141760655761E-01   0.133776744998E-01
 MD| Temperature [K]                             331.588305           312.913367
 MD| ***************************************************************************

 Number of electrons:                                                         56
 Number of occupied orbitals:                                                 40
 Number of molecular orbitals:                                                48

 Number of orbital functions:                                                130
 Number of independent orbital functions:                                    130

 Extrapolation method: ASPC


 SCF WAVEFUNCTION OPTIMIZATION

  Step     Update method      Time    Convergence         Total energy    Change
  ------------------------------------------------------------------------------
     1 Broy./Diag. 0.10E+00    5.9     0.00212302       -81.1244109008 -8.11E+01
     2 Broy./Diag. 0.10E+00    9.5     0.00245618       -81.1240724513  3.38E-04
     3 Broy./Diag. 0.10E+00    8.3     0.00120234       -81.1252073058 -1.13E-03
     4 Broy./Diag. 0.10E+00    6.3     0.00034029       -81.1246729219  5.34E-04
     5 Broy./Diag. 0.10E+00   11.9     0.00021774       -81.1246686609  4.26E-06
     6 Broy./Diag. 0.10E+00   10.0     0.00017464       -81.1245731600  9.55E-05
     7 Broy./Diag. 0.10E+00    6.2     0.00008718       -81.1244889257  8.42E-05

  *** SCF run converged in     7 steps ***


  Electronic density on regular grids:        -56.0000000000        0.0000000000
  Core density on regular grids:               55.9999999890       -0.0000000110
  Total charge density on r-space grids:       -0.0000000110
  Total charge density g-space grids:          -0.0000000110

  Overlap energy of the core charge distribution:               0.00000003650295
  Self energy of the core charge distribution:               -173.72443963993129
  Core Hamiltonian energy:                                     37.67713835766018
  Hartree energy:                                              72.70732385213321
  Exchange-correlation energy:                                -17.56771007668404
  Dispersion energy:                                           -0.00500348354868
  Electronic entropic energy:                                  -0.21180152817284
  Fermi energy:                                                -0.17543806418889

  Total energy:                                               -81.12448892568050

 ENERGY| Total FORCE_EVAL ( QS ) energy [hartree]            -81.124414268439793

 MD| ***************************************************************************
 MD| Step number                                                               9
 MD| Time [fs]                                                          4.500000
 MD| Conserved quantity [hartree]                            -0.811102745144E+02
 MD| ---------------------------------------------------------------------------
 MD|                                          Instantaneous             Averages
 MD| CPU time per MD step [s]                     78.643612           112.989078
 MD| Energy drift per atom [K]          -0.502505432383E+00  -0.447704991721E+00
 MD| Potential energy [hartree]         -0.811244142684E+02  -0.811235920521E+02
 MD| Kinetic energy [hartree]            0.144257458942E-01   0.134941268769E-01
 MD| Temperature [K]                             337.428506           315.637271
 MD| ***************************************************************************

 Number of electrons:                                                         56
 Number of occupied orbitals:                                                 40
 Number of molecular orbitals:                                                48

 Number of orbital functions:                                                130
 Number of independent orbital functions:                                    130

 Extrapolation method: ASPC


 SCF WAVEFUNCTION OPTIMIZATION

  Step     Update method      Time    Convergence         Total energy    Change
  ------------------------------------------------------------------------------
     1 Broy./Diag. 0.10E+00    5.6     0.00255572       -81.1247357767 -8.11E+01
     2 Broy./Diag. 0.10E+00    7.4     0.00263907       -81.1261879291 -1.45E-03
     3 Broy./Diag. 0.10E+00    7.1     0.00121466       -81.1267735676 -5.86E-04
     4 Broy./Diag. 0.10E+00    8.7     0.00057283       -81.1261556087  6.18E-04
     5 Broy./Diag. 0.10E+00   10.0     0.00020770       -81.1258018757  3.54E-04
     6 Broy./Diag. 0.10E+00    7.8     0.00017330       -81.1255413559  2.61E-04
     7 Broy./Diag. 0.10E+00   10.7     0.00008304       -81.1252111204  3.30E-04

  *** SCF run converged in     7 steps ***


  Electronic density on regular grids:        -56.0000000000        0.0000000000
  Core density on regular grids:               55.9999999890       -0.0000000110
  Total charge density on r-space grids:       -0.0000000110
  Total charge density g-space grids:          -0.0000000110

  Overlap energy of the core charge distribution:               0.00000003560372
  Self energy of the core charge distribution:               -173.72443963993129
  Core Hamiltonian energy:                                     37.67634463846566
  Hartree energy:                                              72.70741031517477
  Exchange-correlation energy:                                -17.56780883915702
  Dispersion energy:                                           -0.00500156366210
  Electronic entropic energy:                                  -0.21172095113933
  Fermi energy:                                                -0.17543579373766

  Total energy:                                               -81.12521112040439

 ENERGY| Total FORCE_EVAL ( QS ) energy [hartree]            -81.124739295633447

 MD| ***************************************************************************
 MD| Step number                                                              10
 MD| Time [fs]                                                          5.000000
 MD| Conserved quantity [hartree]                            -0.811102745158E+02
 MD| ---------------------------------------------------------------------------
 MD|                                          Instantaneous             Averages
 MD| CPU time per MD step [s]                     76.979603           109.388131
 MD| Energy drift per atom [K]          -0.502549485908E+00  -0.453189441140E+00
 MD| Potential energy [hartree]         -0.811247392956E+02  -0.811237067764E+02
 MD| Kinetic energy [hartree]            0.146759369623E-01   0.136123078855E-01
 MD| Temperature [K]                             343.280654           318.401610
 MD| ***************************************************************************

 Number of electrons:                                                         56
 Number of occupied orbitals:                                                 40
 Number of molecular orbitals:                                                48

 Number of orbital functions:                                                130
 Number of independent orbital functions:                                    130

 Extrapolation method: ASPC


 SCF WAVEFUNCTION OPTIMIZATION

  Step     Update method      Time    Convergence         Total energy    Change
  ------------------------------------------------------------------------------
     1 Broy./Diag. 0.10E+00    6.4     0.00231337       -81.1250955508 -8.11E+01
     2 Broy./Diag. 0.10E+00    7.5     0.00229126       -81.1250701193  2.54E-05
     3 Broy./Diag. 0.10E+00    9.2     0.00107047       -81.1259856161 -9.15E-04
     4 Broy./Diag. 0.10E+00    8.2     0.00041551       -81.1255128077  4.73E-04
     5 Broy./Diag. 0.10E+00    8.9     0.00021868       -81.1254466511  6.62E-05
     6 Broy./Diag. 0.10E+00    8.3     0.00017406       -81.1253898651  5.68E-05
     7 Broy./Diag. 0.10E+00    9.9     0.00008530       -81.1252490856  1.41E-04

  *** SCF run converged in     7 steps ***


  Electronic density on regular grids:        -56.0000000000        0.0000000000
  Core density on regular grids:               55.9999999890       -0.0000000110
  Total charge density on r-space grids:       -0.0000000110
  Total charge density g-space grids:          -0.0000000110

  Overlap energy of the core charge distribution:               0.00000003473659
  Self energy of the core charge distribution:               -173.72443963993129
  Core Hamiltonian energy:                                     37.67592971794080
  Hartree energy:                                              72.70771641119129
  Exchange-correlation energy:                                -17.56782770500490
  Dispersion energy:                                           -0.00499959069898
  Electronic entropic energy:                                  -0.21163262736282
  Fermi energy:                                                -0.17543702072173

  Total energy:                                               -81.12524908557279

 ENERGY| Total FORCE_EVAL ( QS ) energy [hartree]            -81.125099221894033

 MD| ***************************************************************************
 MD| Step number                                                              11
 MD| Time [fs]                                                          5.500000
 MD| Conserved quantity [hartree]                            -0.811102745140E+02
 MD| ---------------------------------------------------------------------------
 MD|                                          Instantaneous             Averages
 MD| CPU time per MD step [s]                     76.000969           106.352934
 MD| Energy drift per atom [K]          -0.502493940978E+00  -0.457671668398E+00
 MD| Potential energy [hartree]         -0.811250992219E+02  -0.811238333624E+02
 MD| Kinetic energy [hartree]            0.149508961183E-01   0.137339977248E-01
 MD| Temperature [K]                             349.712145           321.248022
 MD| ***************************************************************************

 Number of electrons:                                                         56
 Number of occupied orbitals:                                                 40
 Number of molecular orbitals:                                                48

 Number of orbital functions:                                                130
 Number of independent orbital functions:                                    130

 Extrapolation method: ASPC


 SCF WAVEFUNCTION OPTIMIZATION

  Step     Update method      Time    Convergence         Total energy    Change
  ------------------------------------------------------------------------------
     1 Broy./Diag. 0.10E+00    5.2     0.00249254       -81.1254915556 -8.11E+01
     2 Broy./Diag. 0.10E+00    6.9     0.00169043       -81.1271131666 -1.62E-03
     3 Broy./Diag. 0.10E+00   10.5     0.00092319       -81.1276400562 -5.27E-04
     4 Broy./Diag. 0.10E+00    7.8     0.00045943       -81.1269921905  6.48E-04
     5 Broy./Diag. 0.10E+00    7.4     0.00021113       -81.1267193481  2.73E-04
     6 Broy./Diag. 0.10E+00    8.7     0.00016943       -81.1263745137  3.45E-04
     7 Broy./Diag. 0.10E+00   11.0     0.00008312       -81.1260208379  3.54E-04

  *** SCF run converged in     7 steps ***


  Electronic density on regular grids:        -56.0000000000        0.0000000000
  Core density on regular grids:               55.9999999890       -0.0000000110
  Total charge density on r-space grids:       -0.0000000110
  Total charge density g-space grids:          -0.0000000110

  Overlap energy of the core charge distribution:               0.00000003389801
  Self energy of the core charge distribution:               -173.72443963993129
  Core Hamiltonian energy:                                     37.67522883606924
  Hartree energy:                                              72.70771782428123
  Exchange-correlation energy:                                -17.56800674526823
  Dispersion energy:                                           -0.00499755873390
  Electronic entropic energy:                                  -0.21152862872893
  Fermi energy:                                                -0.17543356017528

  Total energy:                                               -81.12602083793170

 ENERGY| Total FORCE_EVAL ( QS ) energy [hartree]            -81.125495447850710

 MD| ***************************************************************************
 MD| Step number                                                              12
 MD| Time [fs]                                                          6.000000
 MD| Conserved quantity [hartree]                            -0.811102745094E+02
 MD| ---------------------------------------------------------------------------
 MD|                                          Instantaneous             Averages
 MD| CPU time per MD step [s]                     71.894666           103.481412
 MD| Energy drift per atom [K]          -0.502347198953E+00  -0.461394629277E+00
 MD| Potential energy [hartree]         -0.811254954479E+02  -0.811239718695E+02
 MD| Kinetic energy [hartree]            0.153426822396E-01   0.138680547677E-01
 MD| Temperature [K]                             358.876302           324.383712
 MD| ***************************************************************************

 Number of electrons:                                                         56
 Number of occupied orbitals:                                                 40
 Number of molecular orbitals:                                                48

 Number of orbital functions:                                                130
 Number of independent orbital functions:                                    130

 Extrapolation method: ASPC


 SCF WAVEFUNCTION OPTIMIZATION

  Step     Update method      Time    Convergence         Total energy    Change
  ------------------------------------------------------------------------------
     1 Broy./Diag. 0.10E+00    5.5     0.00248524       -81.1259261462 -8.11E+01
     2 Broy./Diag. 0.10E+00    6.7     0.00221105       -81.1260615556 -1.35E-04
     3 Broy./Diag. 0.10E+00    9.4     0.00112421       -81.1270565009 -9.95E-04
     4 Broy./Diag. 0.10E+00   10.4     0.00045432       -81.1264970309  5.59E-04
     5 Broy./Diag. 0.10E+00    7.2     0.00021708       -81.1264092710  8.78E-05
     6 Broy./Diag. 0.10E+00   11.1     0.00018942       -81.1263153311  9.39E-05
     7 Broy./Diag. 0.10E+00   11.4     0.00009090       -81.1261424315  1.73E-04

  *** SCF run converged in     7 steps ***


  Electronic density on regular grids:        -56.0000000000        0.0000000000
  Core density on regular grids:               55.9999999890       -0.0000000110
  Total charge density on r-space grids:       -0.0000000110
  Total charge density g-space grids:          -0.0000000110

  Overlap energy of the core charge distribution:               0.00000003308345
  Self energy of the core charge distribution:               -173.72443963993129
  Core Hamiltonian energy:                                     37.67487616823716
  Hartree energy:                                              72.70793670167137
  Exchange-correlation energy:                                -17.56810968040532
  Dispersion energy:                                           -0.00499545825935
  Electronic entropic energy:                                  -0.21141463377000
  Fermi energy:                                                -0.17543347101872

  Total energy:                                               -81.12614243152892

 ENERGY| Total FORCE_EVAL ( QS ) energy [hartree]            -81.125930325052650

 MD| ***************************************************************************
 MD| Step number                                                              13
 MD| Time [fs]                                                          6.500000
 MD| Conserved quantity [hartree]                            -0.811102745084E+02
 MD| ---------------------------------------------------------------------------
 MD|                                          Instantaneous             Averages
 MD| CPU time per MD step [s]                     79.931683           101.669894
 MD| Energy drift per atom [K]          -0.502316819965E+00  -0.464542490099E+00
 MD| Potential energy [hartree]         -0.811259303251E+02  -0.811241225199E+02
 MD| Kinetic energy [hartree]            0.158225486561E-01   0.140184004514E-01
 MD| Temperature [K]                             370.100721           327.900405
 MD| ***************************************************************************

 Number of electrons:                                                         56
 Number of occupied orbitals:                                                 40
 Number of molecular orbitals:                                                48

 Number of orbital functions:                                                130
 Number of independent orbital functions:                                    130

 Extrapolation method: ASPC


 SCF WAVEFUNCTION OPTIMIZATION

  Step     Update method      Time    Convergence         Total energy    Change
  ------------------------------------------------------------------------------
     1 Broy./Diag. 0.10E+00    6.3     0.00257001       -81.1263987120 -8.11E+01
     2 Broy./Diag. 0.10E+00    6.2     0.00155162       -81.1282910289 -1.89E-03
     3 Broy./Diag. 0.10E+00   11.0     0.00093628       -81.1286398826 -3.49E-04
     4 Broy./Diag. 0.10E+00   11.2     0.00045194       -81.1280990280  5.41E-04
     5 Broy./Diag. 0.10E+00    7.9     0.00021573       -81.1277588755  3.40E-04
     6 Broy./Diag. 0.10E+00   10.6     0.00018247       -81.1273764985  3.82E-04
     7 Broy./Diag. 0.10E+00   10.5     0.00010464       -81.1269661995  4.10E-04
     8 Broy./Diag. 0.10E+00   10.2     0.00006214       -81.1267611960  2.05E-04

  *** SCF run converged in     8 steps ***


  Electronic density on regular grids:        -56.0000000000        0.0000000000
  Core density on regular grids:               55.9999999890       -0.0000000110
  Total charge density on r-space grids:       -0.0000000110
  Total charge density g-space grids:          -0.0000000110

  Overlap energy of the core charge distribution:               0.00000003229469
  Self energy of the core charge distribution:               -173.72443963993129
  Core Hamiltonian energy:                                     37.67432715641623
  Hartree energy:                                              72.70796861986182
  Exchange-correlation energy:                                -17.56833782862993
  Dispersion energy:                                           -0.00499329535959
  Electronic entropic energy:                                  -0.21128809507786
  Fermi energy:                                                -0.17543099576794

  Total energy:                                               -81.12676119598268

 ENERGY| Total FORCE_EVAL ( QS ) energy [hartree]            -81.126403185993524

 MD| ***************************************************************************
 MD| Step number                                                              14
 MD| Time [fs]                                                          7.000000
 MD| Conserved quantity [hartree]                            -0.811102745015E+02
 MD| ---------------------------------------------------------------------------
 MD|                                          Instantaneous             Averages
 MD| CPU time per MD step [s]                     94.820777           101.180672
 MD| Energy drift per atom [K]          -0.502098714378E+00  -0.467225077548E+00
 MD| Potential energy [hartree]         -0.811264031860E+02  -0.811242854247E+02
 MD| Kinetic energy [hartree]            0.162710196278E-01   0.141793018212E-01
 MD| Temperature [K]                             380.590777           331.664003
 MD| ***************************************************************************

 Number of electrons:                                                         56
 Number of occupied orbitals:                                                 40
 Number of molecular orbitals:                                                48

 Number of orbital functions:                                                130
 Number of independent orbital functions:                                    130

 Extrapolation method: ASPC


 SCF WAVEFUNCTION OPTIMIZATION

  Step     Update method      Time    Convergence         Total energy    Change
  ------------------------------------------------------------------------------
     1 Broy./Diag. 0.10E+00    7.1     0.00259889       -81.1269116004 -8.11E+01
     2 Broy./Diag. 0.10E+00    7.6     0.00237896       -81.1279315596 -1.02E-03
     3 Broy./Diag. 0.10E+00    9.0     0.00046901       -81.1281324452 -2.01E-04
     4 Broy./Diag. 0.10E+00    7.9     0.00025631       -81.1279049786  2.27E-04
     5 Broy./Diag. 0.10E+00   11.6     0.00025670       -81.1275923422  3.13E-04
     6 Broy./Diag. 0.10E+00    9.5     0.00017550       -81.1273596564  2.33E-04
     7 Broy./Diag. 0.10E+00    9.2     0.00009138       -81.1271627708  1.97E-04

  *** SCF run converged in     7 steps ***


  Electronic density on regular grids:        -56.0000000000        0.0000000000
  Core density on regular grids:               55.9999999890       -0.0000000110
  Total charge density on r-space grids:       -0.0000000110
  Total charge density g-space grids:          -0.0000000110

  Overlap energy of the core charge distribution:               0.00000003152820
  Self energy of the core charge distribution:               -173.72443963993129
  Core Hamiltonian energy:                                     37.67399822764996
  Hartree energy:                                              72.70797893225119
  Exchange-correlation energy:                                -17.56856602662779
  Dispersion energy:                                           -0.00499106191851
  Electronic entropic energy:                                  -0.21114605561265
  Fermi energy:                                                -0.17542846958226

  Total energy:                                               -81.12716277080737

 ENERGY| Total FORCE_EVAL ( QS ) energy [hartree]            -81.126916467283564

 MD| ***************************************************************************
 MD| Step number                                                              15
 MD| Time [fs]                                                          7.500000
 MD| Conserved quantity [hartree]                            -0.811102744808E+02
 MD| ---------------------------------------------------------------------------
 MD|                                          Instantaneous             Averages
 MD| CPU time per MD step [s]                     77.332783            99.590812
 MD| Energy drift per atom [K]          -0.501443614112E+00  -0.469506313319E+00
 MD| Potential energy [hartree]         -0.811269164673E+02  -0.811244608275E+02
 MD| Kinetic energy [hartree]            0.170239603382E-01   0.143689457223E-01
 MD| Temperature [K]                             398.202599           336.099909
 MD| ***************************************************************************

 Number of electrons:                                                         56
 Number of occupied orbitals:                                                 40
 Number of molecular orbitals:                                                48

 Number of orbital functions:                                                130
 Number of independent orbital functions:                                    130

 Extrapolation method: ASPC


 SCF WAVEFUNCTION OPTIMIZATION

  Step     Update method      Time    Convergence         Total energy    Change
  ------------------------------------------------------------------------------
     1 Broy./Diag. 0.10E+00    7.3     0.00269929       -81.1274627515 -8.11E+01
     2 Broy./Diag. 0.10E+00    7.3     0.00213494       -81.1295908504 -2.13E-03
     3 Broy./Diag. 0.10E+00    7.5     0.00124501       -81.1295150623  7.58E-05
     4 Broy./Diag. 0.10E+00    7.8     0.00047456       -81.1292357772  2.79E-04
     5 Broy./Diag. 0.10E+00    9.5     0.00022170       -81.1288450660  3.91E-04
     6 Broy./Diag. 0.10E+00    8.2     0.00021833       -81.1283672906  4.78E-04
     7 Broy./Diag. 0.10E+00   12.1     0.00009715       -81.1279878477  3.79E-04

  *** SCF run converged in     7 steps ***


  Electronic density on regular grids:        -56.0000000000        0.0000000000
  Core density on regular grids:               55.9999999890       -0.0000000110
  Total charge density on r-space grids:       -0.0000000110
  Total charge density g-space grids:          -0.0000000110

  Overlap energy of the core charge distribution:               0.00000003078773
  Self energy of the core charge distribution:               -173.72443963993129
  Core Hamiltonian energy:                                     37.67348845035266
  Hartree energy:                                              72.70783911683839
  Exchange-correlation energy:                                -17.56889904591494
  Dispersion energy:                                           -0.00498877080916
  Electronic entropic energy:                                  -0.21099149234339
  Fermi energy:                                                -0.17542405407506

  Total energy:                                               -81.12798784767730

 ENERGY| Total FORCE_EVAL ( QS ) energy [hartree]            -81.127467922882659

 MD| ***************************************************************************
 MD| Step number                                                              16
 MD| Time [fs]                                                          8.000000
 MD| Conserved quantity [hartree]                            -0.811102744618E+02
 MD| ---------------------------------------------------------------------------
 MD|                                          Instantaneous             Averages
 MD| CPU time per MD step [s]                     79.271206            98.320837
 MD| Energy drift per atom [K]          -0.500843679589E+00  -0.471464898711E+00
 MD| Potential energy [hartree]         -0.811274679229E+02  -0.811246487710E+02
 MD| Kinetic energy [hartree]            0.178417492886E-01   0.145859959452E-01
 MD| Temperature [K]                             417.331267           341.176869
 MD| ***************************************************************************

 Number of electrons:                                                         56
 Number of occupied orbitals:                                                 40
 Number of molecular orbitals:                                                48

 Number of orbital functions:                                                130
 Number of independent orbital functions:                                    130

 Extrapolation method: ASPC


 SCF WAVEFUNCTION OPTIMIZATION

  Step     Update method      Time    Convergence         Total energy    Change
  ------------------------------------------------------------------------------
     1 Broy./Diag. 0.10E+00    4.5     0.00251318       -81.1280549049 -8.11E+01
     2 Broy./Diag. 0.10E+00    9.0     0.00208327       -81.1293110788 -1.26E-03
     3 Broy./Diag. 0.10E+00   10.6     0.00134172       -81.1295565633 -2.45E-04
     4 Broy./Diag. 0.10E+00    7.9     0.00039331       -81.1293003357  2.56E-04
     5 Broy./Diag. 0.10E+00    9.1     0.00023378       -81.1290360269  2.64E-04
     6 Broy./Diag. 0.10E+00   10.8     0.00022395       -81.1286934994  3.43E-04
     7 Broy./Diag. 0.10E+00    7.8     0.00009518       -81.1284136437  2.80E-04

  *** SCF run converged in     7 steps ***


  Electronic density on regular grids:        -56.0000000000        0.0000000000
  Core density on regular grids:               55.9999999890       -0.0000000110
  Total charge density on r-space grids:       -0.0000000110
  Total charge density g-space grids:          -0.0000000110

  Overlap energy of the core charge distribution:               0.00000003006970
  Self energy of the core charge distribution:               -173.72443963993129
  Core Hamiltonian energy:                                     37.67326396771200
  Hartree energy:                                              72.70778292658802
  Exchange-correlation energy:                                -17.56921337554699
  Dispersion energy:                                           -0.00498641309797
  Electronic entropic energy:                                  -0.21082635206960
  Fermi energy:                                                -0.17542051934894

  Total energy:                                               -81.12841364371567

 ENERGY| Total FORCE_EVAL ( QS ) energy [hartree]            -81.128060475420213

 MD| ***************************************************************************
 MD| Step number                                                              17
 MD| Time [fs]                                                          8.500000
 MD| Conserved quantity [hartree]                            -0.811102744495E+02
 MD| ---------------------------------------------------------------------------
 MD|                                          Instantaneous             Averages
 MD| CPU time per MD step [s]                     77.667822            97.105954
 MD| Energy drift per atom [K]          -0.500454554545E+00  -0.473170172583E+00
 MD| Potential energy [hartree]         -0.811280604754E+02  -0.811248494595E+02
 MD| Kinetic energy [hartree]            0.183384755357E-01   0.148067300388E-01
 MD| Temperature [K]                             428.950049           346.339997
 MD| ***************************************************************************

 Number of electrons:                                                         56
 Number of occupied orbitals:                                                 40
 Number of molecular orbitals:                                                48

 Number of orbital functions:                                                130
 Number of independent orbital functions:                                    130

 Extrapolation method: ASPC


 SCF WAVEFUNCTION OPTIMIZATION

  Step     Update method      Time    Convergence         Total energy    Change
  ------------------------------------------------------------------------------
     1 Broy./Diag. 0.10E+00    5.1     0.00271838       -81.1286875301 -8.11E+01
     2 Broy./Diag. 0.10E+00    6.9     0.00269175       -81.1305120613 -1.82E-03
     3 Broy./Diag. 0.10E+00   10.6     0.00154940       -81.1312157078 -7.04E-04
     4 Broy./Diag. 0.10E+00   10.3     0.00049103       -81.1306117346  6.04E-04
     5 Broy./Diag. 0.10E+00    7.7     0.00021598       -81.1302035759  4.08E-04
     6 Broy./Diag. 0.10E+00    8.8     0.00020485       -81.1297948750  4.09E-04
     7 Broy./Diag. 0.10E+00   10.0     0.00010805       -81.1293102248  4.85E-04
     8 Broy./Diag. 0.10E+00    7.9     0.00007734       -81.1290676927  2.43E-04

  *** SCF run converged in     8 steps ***


  Electronic density on regular grids:        -56.0000000000        0.0000000000
  Core density on regular grids:               55.9999999890       -0.0000000110
  Total charge density on r-space grids:       -0.0000000110
  Total charge density g-space grids:          -0.0000000110

  Overlap energy of the core charge distribution:               0.00000002937517
  Self energy of the core charge distribution:               -173.72443963993129
  Core Hamiltonian energy:                                     37.67295105198084
  Hartree energy:                                              72.70765908466180
  Exchange-correlation energy:                                -17.56960944930352
  Dispersion energy:                                           -0.00498399452357
  Electronic entropic energy:                                  -0.21064773105160
  Fermi energy:                                                -0.17541664713122

  Total energy:                                               -81.12906769271567

 ENERGY| Total FORCE_EVAL ( QS ) energy [hartree]            -81.128693541514991

 MD| ***************************************************************************
 MD| Step number                                                              18
 MD| Time [fs]                                                          9.000000
 MD| Conserved quantity [hartree]                            -0.811102744406E+02
 MD| ---------------------------------------------------------------------------
 MD|                                          Instantaneous             Averages
 MD| CPU time per MD step [s]                     87.750744            96.586220
 MD| Energy drift per atom [K]          -0.500175134542E+00  -0.474670448248E+00
 MD| Potential energy [hartree]         -0.811286935415E+02  -0.811250630196E+02
 MD| Kinetic energy [hartree]            0.191630518099E-01   0.150487479149E-01
 MD| Temperature [K]                             448.237477           352.000968
 MD| ***************************************************************************

 Number of electrons:                                                         56
 Number of occupied orbitals:                                                 40
 Number of molecular orbitals:                                                48

 Number of orbital functions:                                                130
 Number of independent orbital functions:                                    130

 Extrapolation method: ASPC


 SCF WAVEFUNCTION OPTIMIZATION

  Step     Update method      Time    Convergence         Total energy    Change
  ------------------------------------------------------------------------------
     1 Broy./Diag. 0.10E+00    6.9     0.00264602       -81.1293614407 -8.11E+01
     2 Broy./Diag. 0.10E+00    7.3     0.00235460       -81.1309721243 -1.61E-03
     3 Broy./Diag. 0.10E+00   12.9     0.00070663       -81.1313232701 -3.51E-04
     4 Broy./Diag. 0.10E+00   10.2     0.00044671       -81.1309181015  4.05E-04
     5 Broy./Diag. 0.10E+00    7.6     0.00022862       -81.1306638864  2.54E-04
     6 Broy./Diag. 0.10E+00    9.1     0.00023680       -81.1301212945  5.43E-04
     7 Broy./Diag. 0.10E+00    7.9     0.00009737       -81.1297652042  3.56E-04

  *** SCF run converged in     7 steps ***


  Electronic density on regular grids:        -56.0000000000        0.0000000000
  Core density on regular grids:               55.9999999890       -0.0000000110
  Total charge density on r-space grids:       -0.0000000110
  Total charge density g-space grids:          -0.0000000110

  Overlap energy of the core charge distribution:               0.00000002870341
  Self energy of the core charge distribution:               -173.72443963993129
  Core Hamiltonian energy:                                     37.67275750382129
  Hartree energy:                                              72.70739613334329
  Exchange-correlation energy:                                -17.57004985748009
  Dispersion energy:                                           -0.00498151523679
  Electronic entropic energy:                                  -0.21045358743307
  Fermi energy:                                                -0.17541065667262

  Total energy:                                               -81.12976520420851

 ENERGY| Total FORCE_EVAL ( QS ) energy [hartree]            -81.129367945529481

 MD| ***************************************************************************
 MD| Step number                                                              19
[...]
     7 Broy./Diag. 0.10E+00    6.7     0.00018841       -81.1726716613  7.02E-04
     8 Broy./Diag. 0.10E+00    9.5     0.00011507       -81.1725478984  1.24E-04
     9 Broy./Diag. 0.10E+00   10.1     0.00008012       -81.1724100216  1.38E-04

  *** SCF run converged in     9 steps ***


  Electronic density on regular grids:        -56.0000000000        0.0000000000
  Core density on regular grids:               55.9999999890       -0.0000000110
  Total charge density on r-space grids:       -0.0000000110
  Total charge density g-space grids:          -0.0000000110

  Overlap energy of the core charge distribution:               0.00000001754014
  Self energy of the core charge distribution:               -173.72443963993129
  Core Hamiltonian energy:                                     37.71684965931775
  Hartree energy:                                              72.65563512658807
  Exchange-correlation energy:                                -17.61703433873684
  Dispersion energy:                                           -0.00488787972279
  Electronic entropic energy:                                  -0.19853596893670
  Fermi energy:                                                -0.17505068272071

  Total energy:                                               -81.17241002158552

 ENERGY| Total FORCE_EVAL ( QS ) energy [hartree]            -81.172207305029744

 MD| ***************************************************************************
 MD| Step number                                                              50
 MD| Time [fs]                                                         25.000000
 MD| Conserved quantity [hartree]                            -0.811102731570E+02
 MD| ---------------------------------------------------------------------------
 MD|                                          Instantaneous             Averages
 MD| CPU time per MD step [s]                     90.766159            92.412346
 MD| Energy drift per atom [K]          -0.459643152911E+00  -0.476795746898E+00
 MD| Potential energy [hartree]         -0.811722073050E+02  -0.811392355829E+02
 MD| Kinetic energy [hartree]            0.647487888078E-01   0.301185295798E-01
 MD| Temperature [K]                            1514.520444           704.493931
 MD| ***************************************************************************

 -------------------------------------------------------------------------------
 -                                                                             -
 -                                DBCSR STATISTICS                             -
 -                                                                             -
 -------------------------------------------------------------------------------
 COUNTER                                    TOTAL       BLAS       SMM       ACC
 flops    13 x    16 x    13            129792000     100.0%      0.0%      0.0%     
 flops    13 x    13 x    16            156453440     100.0%      0.0%      0.0%     
 flops    13 x    32 x    13            259584000     100.0%      0.0%      0.0%     
 flops    13 x    13 x    32            312906880     100.0%      0.0%      0.0%     
 flops inhomo. stacks                           0       0.0%      0.0%      0.0%
 flops total                       858.736320E+06     100.0%      0.0%      0.0%
 flops max/rank                    206.239488E+06     100.0%      0.0%      0.0%
 matmuls inhomo. stacks                         0       0.0%      0.0%      0.0%
 matmuls total                             105860     100.0%      0.0%      0.0%
 number of processed stacks                 44856     100.0%      0.0%      0.0%
 average stack size                                     2.4       0.0       0.0
 marketing flops                     1.100526E+09
 -------------------------------------------------------------------------------
 # multiplications                            766
 max memory usage/rank               0.000000E+00
 # max total images/rank                        3
 # max 3D layers                                1
 # MPI messages exchanged                   32172
 MPI messages size (bytes):
  total size                       135.183360E+06
  min size                           0.000000E+00
  max size                          16.640000E+03
  average size                       4.201895E+03
 MPI breakdown and total messages size (bytes):
             size <=      128               14728                        0
       128 < size <=     8192               10698                 54778880
      8192 < size <=    32768                6746                 80404480
     32768 < size <=   131072                   0                        0
    131072 < size <=  4194304                   0                        0
   4194304 < size <= 16777216                   0                        0
  16777216 < size                               0                        0
 -------------------------------------------------------------------------------

 *** WARNING in dbcsr_mm.F:301 :: Using a non-square number of MPI ranks ***
 *** might lead to poor performance. Used ranks: 6 Suggested: 4 9        ***

 -------------------------------------------------------------------------------
 -                                                                             -
 -                      DBCSR MESSAGE PASSING PERFORMANCE                      -
 -                                                                             -
 -------------------------------------------------------------------------------
 ROUTINE             CALLS      AVE VOLUME [Bytes]
 MP_Bcast                5                     12.
 MP_Allreduce         4330                      8.
 MP_Alltoall         19168                   8651.
 MP_ISend            14748                   2688.
 MP_IRecv            17332                   1356.
 -------------------------------------------------------------------------------

 -------------------------------------------------------------------------------
 -                                                                             -
 -                                DBM STATISTICS                               -
 -                                                                             -
 -------------------------------------------------------------------------------
    M  x    N  x    K                                          COUNT     PERCENT
 -------------------------------------------------------------------------------

 -------------------------------------------------------------------------------
 -                                                                             -
 -                                GRID STATISTICS                              -
 -                                                                             -
 -------------------------------------------------------------------------------
 LP    KERNEL             BACKEND                              COUNT     PERCENT
 4     collocate ortho    CPU                                 252507      49.40%
 4     integrate ortho    CPU                                 225453      44.11%
 5     integrate ortho    CPU                                  27054       5.29%
 0     collocate general  CPU                                   3060       0.60%
 1     integrate general  CPU                                   3060       0.60%
 -------------------------------------------------------------------------------

 MEMORY| Estimated peak process memory [MiB]                                   0

 -------------------------------------------------------------------------------
 -                                                                             -
 -                         MESSAGE PASSING PERFORMANCE                         -
 -                                                                             -
 -------------------------------------------------------------------------------

 ROUTINE             CALLS      AVE VOLUME [Bytes]
 MP_Group                4
 MP_Bcast             1073                 350420.
 MP_Allreduce         9726                    107.
 MP_Sync               479
 MP_Alltoall         10132               43761860.
 MP_SendRecv          8160                 613177.
 MP_ISendRecv         7140                 700757.
 MP_Wait             17680
 MP_comm_split         475
 MP_ISend             8432                3170304.
 MP_IRecv             8432                3170304.
 -------------------------------------------------------------------------------


 -------------------------------------------------------------------------------
 -                                                                             -
 -                           R E F E R E N C E S                               -
 -                                                                             -
 -------------------------------------------------------------------------------
 
 CP2K version 2025.1, the CP2K developers group (2025).
 CP2K is freely available from https://www.cp2k.org/ .
 
 T. D. Kuehne, M. Iannuzzi, M. Del Ben, V. V. Rybkin, P. Seewald, F. Stein, T. 
 Laino, R. Z. Khaliullin, O. Schuett, F. Schiffmann, D. Golze, J. Wilhelm, S. 
 Chulkov, M. H. Bani-Hashemian, V. Weber, U. Borstnik, M. Taillefumier, A. S. 
 Jakobovits, A. Lazzaro, H. Pabst, T. Mueller, R. Schade, M. Guidon, S. 
 Andermatt, N. Holmberg, G. K. Schenter, A. Hehn, A. Bussy, F. Belleflamme, G. 
 Tabacchi, A. Gloess, M. Lass, I. Bethune, C. J. Mundy, C. Plessl, M. Watkins, 
 J. VandeVondele, M. Krack, J. Hutter.
 J. Chem. Phys. 152, 194103 (2020).
 CP2K: An electronic structure and molecular dynamics software package - 
 Quickstep: Efficient and accurate electronic structure calculations.
 https://doi.org/10.1063/5.0007045

 L. Goerigk, A. Hansen, C. Bauer, S. Ehrlich, A. Najibi, S. Grimme.
 Phys. Chem. Chem. Phys. 19, 32184-32215 (2017).
 A look at the density functional theory zoo with the advanced GMTKN55 database 
 for general main group thermochemistry, kinetics and noncovalent interactions.
 https://doi.org/10.1039/C7CP04913G

 O. Schuett, P. Messmer, J. Hutter, J. VandeVondele.
 Electronic Structure Calculations on Graphics Processing Units, 173-190 (2016).
 GPU-Accelerated Sparse Matrix-Matrix Multiplication for Linear Scaling Density 
 Functional Theory.
 https://doi.org/10.1002/9781118670712.ch8

 J. Hutter, M. Iannuzzi, F. Schiffmann, J. VandeVondele.
 WIREs Comput Mol Sci. 4, 15-25 (2014).
 CP2K: atomistic simulations of condensed matter systems.
 https://doi.org/10.1002/wcms.1159

 U. Borstnik, J. VandeVondele, V. Weber, J. Hutter.
 Parallel Comput. 40, 47-58 (2014).
 Sparse matrix multiplication: The distributed block-compressed sparse row 
 library.
 https://doi.org/10.1016/j.parco.2014.03.012

 S. Grimme, S. Ehrlich, L. Goerigk.
 J. Comput. Chem. 32, 1456 (2011).
 Effect of the damping function in dispersion corrected density functional 
 theory.
 https://doi.org/10.1002/jcc.21759

 S. Grimme, J. Antony, S. Ehrlich, H. Krieg.
 J. Chem. Phys. 132, 154104 (2010).
 A consistent and accurate ab initio parametrization of density functional 
 dispersion correction (DFT-D) for the 94 elements H-Pu.
 https://doi.org/10.1063/1.3382344

 G. Bussi, D. Donadio, M. Parrinello.
 J. Chem. Phys. 126, 014101 (2007).
 Canonical sampling through velocity rescaling.
 https://doi.org/10.1063/1.2408420

 J. VandeVondele, J. Hutter.
 J. Chem. Phys. 127, 114105 (2007).
 Gaussian basis sets for accurate calculations on molecular systems in gas and 
 condensed phases.
 https://doi.org/10.1063/1.2770708

 T. D. Khne, M. Krack, F. R. Mohamed, M. Parrinello.
 Phys. Rev. Lett. 98, 066401 (2007).
 Efficient and accurate Car-Parrinello-like approach to Born-Oppenheimer 
 molecular dynamics.
 https://doi.org/10.1103/PhysRevLett.98.066401

 J. VandeVondele, M. Krack, F. Mohamed, M. Parrinello, T. Chassaing, J. Hutter.
 Comput. Phys. Commun. 167, 103-128 (2005).
 QUICKSTEP: Fast and accurate density functional calculations using a mixed 
 Gaussian and plane waves approach.
 https://doi.org/10.1016/j.cpc.2004.12.014

 M. Krack.
 Theor. Chem. Acc. 114, 145-152 (2005).
 Pseudopotentials for H to Kr optimized for gradient-corrected 
 exchange-correlation functionals.
 https://doi.org/10.1007/s00214-005-0655-y

 M. Frigo, S. G. Johnson.
 Proc. IEEE 93, 216-231 (2005).
 The design and implementation of FFTW3.
 https://doi.org/10.1109/JPROC.2004.840301

 J. Kolafa.
 J. Comput. Chem. 25, 335-342 (2004).
 Time-reversible always stable predictor-corrector method for molecular dynamics 
 of polarizable molecules.
 https://doi.org/10.1002/jcc.10385

 C. Hartwigsen, S. Goedecker, J. Hutter.
 Phys. Rev. B 58, 3641-3662 (1998).
 Relativistic separable dual-space Gaussian pseudopotentials from H to Rn.
 https://doi.org/10.1103/PhysRevB.58.3641

 G. Lippert, J. Hutter, M. Parrinello.
 Mol. Phys. 92, 477-487 (1997).
 A hybrid Gaussian and plane wave density functional scheme.
 https://doi.org/10.1080/002689797170220

 S. Goedecker, M. Teter, J. Hutter.
 Phys. Rev. B 54, 1703-1710 (1996).
 Separable dual-space Gaussian pseudopotentials.
 https://doi.org/10.1103/PhysRevB.54.1703

 J. P. Perdew, K. Burke, M. Ernzerhof.
 Phys. Rev. Lett. 77, 3865-3868 (1996).
 Generalized gradient approximation made simple.
 https://doi.org/10.1103/PhysRevLett.77.3865


 -------------------------------------------------------------------------------
 -                                                                             -
 -                                T I M I N G                                  -
 -                                                                             -
 -------------------------------------------------------------------------------
 SUBROUTINE                       CALLS  ASD         SELF TIME        TOTAL TIME
                                MAXIMUM       AVERAGE  MAXIMUM  AVERAGE  MAXIMUM
 CP2K                                 1  1.0    0.108    0.139 4622.013 4622.037
 qs_mol_dyn_low                       1  2.0    0.110    0.117 4620.655 4620.659
 qs_forces                           51  4.0    0.084    0.121 4616.934 4616.961
 velocity_verlet                     50  3.0    0.150    0.193 4432.415 4432.677
 qs_energies                         51  5.0    0.080    0.100 4366.722 4367.124
 scf_env_do_scf                      51  6.0    0.041    0.112 3847.714 3849.065
 scf_env_do_scf_inner_loop          425  7.0    0.317    0.571 3847.669 3849.039
 rebuild_ks_matrix                  476  8.6    0.029    0.074 2127.054 2128.125
 qs_ks_build_kohn_sham_matrix       476  9.6    3.545    4.165 2127.025 2128.110
 qs_ks_update_qs_env                425  8.0    0.016    0.024 1889.717 1890.736
 fft_wrap_pw1pw2                   8517 12.8    3.543    3.886 1809.350 1814.814
 fft_wrap_pw1pw2_200               5661 14.1   32.557   33.324 1505.000 1509.431
 fft3d_ps                          8517 14.8  766.552  770.484 1496.205 1505.010
 qs_vxc_create                      476 10.6    0.397    0.446 1248.534 1249.779
 xc_vxc_pw_create                   476 11.6   22.375   23.604 1248.137 1249.442
 qs_rho_update_rho_low              476  8.1    0.028    0.080 1100.522 1101.521
 calculate_rho_elec                 476  9.1    4.248    4.529 1100.495 1101.512
 xc_pw_derive                      2856 13.6    0.397    0.461  824.030  830.674
 xc_rho_set_and_dset_create         476 12.6   34.623   35.485  681.335  685.115
 dbcsr_multiply_generic             766 11.0    4.715    4.939  680.000  682.262
 qs_scf_new_mos                     425  8.0    0.051    0.078  674.810  677.109
 cp_dbcsr_plus_fm_fm_t_native       526  9.8    0.276    0.521  654.697  664.647
 density_rs2pw                      476 10.1    0.532    0.627  596.560  599.429
 calculate_dm_sparse                475  9.0    0.033    0.070  581.208  590.003
 xc_pw_divergence                   476 12.6    0.189    0.227  507.955  515.393
 mp_alltoall_z22v                  8517 16.8  502.607  508.937  502.607  508.937
 sum_up_and_integrate               476 10.6    0.237    0.350  484.585  486.190
 integrate_v_rspace                 476 11.6    0.761    1.039  475.877  477.706
 grid_collocate_task_list           476 10.1  474.275  475.925  474.275  475.925
 make_m2s                          1532 12.0    0.201    0.384  440.028  455.248
 potential_pw2rs                    476 12.6    0.634    0.772  444.040  444.829
 x_to_yz                           4658 16.0  144.710  145.441  430.728  437.746
 init_scf_run                        51  6.0    0.019    0.042  406.045  406.131
 scf_env_initial_rho_setup           51  7.0    0.005    0.011  399.873  399.982
 wfi_extrapolate                     51  8.0    0.120    0.192  366.215  366.257
 yz_to_x                           3859 15.7   81.506   82.338  298.095  304.893
 gspace_mixing                      374  7.9    3.449    3.604  281.825  281.867
 dbcsr_finalize                   12604 13.2   88.482   92.000  245.465  250.562
 qs_ks_update_qs_env_forces          51  5.0    0.002    0.004  240.729  240.888
 dbcsr_crop_matrix                 2630 12.8    7.760    8.365  221.994  229.362
 make_images                       1532 13.0   32.968   34.502  182.807  195.919
 transfer_pw2rs                    1955 13.5    0.692    0.800  193.935  194.432
 broyden_mixing                     374  8.9  165.543  166.452  179.694  180.057
 multiply_cannon                    766 12.0    9.895   10.405  162.584  179.575
 dbcsr_copy_submatrix              2630 13.8    8.385    9.250  169.163  174.510
 cp_dbcsr_sm_fm_multiply            240  9.4    0.052    0.097  167.955  168.843
 pw_poisson_solve                   476 10.6    0.172    0.312  167.122  168.548
 dbcsr_merge_all                   5404 14.4  138.318  140.484  150.930  153.058
 pw_copy                           7140 13.2  150.212  152.164  150.212  152.164
 transfer_rs2pw                    1955 11.0    0.606    0.645  146.386  149.116
 fft_wrap_pw1pw2_70                 952 13.3    9.969   10.166  139.576  140.437
 transfer_pw2rs_200                 527 14.2   39.648   40.395  138.691  139.755
 dbcsr_complete_redistribute       2008 11.2    1.085    1.284  132.355  139.673
 xc_functional_eval                 476 13.6    0.102    0.150  134.787  139.385
 pbe_lda_eval                       476 14.6  134.685  139.236  134.685  139.236
 eigensolver                        425  9.0    0.021    0.036  123.564  134.061
 cp_dbcsr_sm_fm_multiply_core       240 10.4    0.009    0.014  118.214  120.065
 transfer_rs2pw_200                 527 11.9   53.233   54.304  111.300  114.075
 copy_fm_to_dbcsr                  1292 10.7    0.059    0.081  107.424  113.859
 mp_waitany                        8432 14.0  110.742  113.820  110.742  113.820
 pw_derive                         4284 14.0  107.293  107.795  107.293  107.795
 pw_poisson_set                     477 11.6    0.369    0.446  105.541  106.990
 mp_allgather_i34                   766 13.0   82.234   99.392   82.234   99.392
 pw_gather_p                       3859 14.7   96.642   97.273   96.642   97.273
 make_images_sizes                 1532 14.0    0.048    0.061   73.011   93.361
 mp_alltoall_i44                   1532 15.0   72.963   93.318   72.963   93.318
 -------------------------------------------------------------------------------

 The number of warnings for this run is : 2
 
 -------------------------------------------------------------------------------
  **** **** ******  **  PROGRAM ENDED AT                 2025-10-01 14:30:35.163
 ***** ** ***  *** **   PROGRAM RAN ON                                       Mac
 **    ****   ******    PROGRAM RAN BY                               jdmusgraves
 ***** **    ** ** **   PROGRAM PROCESS ID                                 59738
  **** **  *******  **  PROGRAM STOPPED IN /Users/jdmusgraves/GitHub/local_shake
                                           down_kit
