#     Step Nr.          Time[fs]        Kin.[a.u.]          Temp[K]            Pot.[a.u.]        Cons Qty[a.u.]        UsedTime[s]
         0            0.000000         0.135381356       300.000000000      -779.965873397      -779.830492041         0.000000000
         1            0.500000         0.134258182       297.511088472      -779.980447017      -779.846411483       788.655572000
         2            1.000000         0.149659449       331.639718651      -779.997270595      -779.847456639       394.198077000
         3            1.500000         0.181559711       402.329500992      -780.029531113      -779.847553401       386.318695000
         4            2.000000         0.228514788       506.380187123      -780.076756927      -779.847680940       383.563181000
         5            2.500000         0.288068437       638.348835907      -780.136978630      -779.847839147       390.222991000
         6            3.000000         0.358647108       794.748520801      -780.207737361      -779.848001756       391.821737000
         7            3.500000         0.436669777       967.643825974      -780.286386683      -779.848170813       384.492716000
         8            4.000000         0.518439875      1148.843290535      -780.370146021      -779.848319392       244.077115000
         9            4.500000         0.604159695      1338.795193553      -780.456576825      -779.848445705       273.109840000
        10            5.000000         0.691833356      1533.076732694      -780.543540269      -779.848551279       239.100782000
        11            5.500000         0.776159183      1719.939598213      -780.629082977      -779.848632188       250.333511000
        12            6.000000         0.858539674      1902.491672771      -780.711655704      -779.848684625       256.274772000
        13            6.500000         0.936788798      2075.888792298      -780.790243550      -779.848714435       269.774147000
        14            7.000000         1.010527513      2239.291014344      -780.864002978      -779.848725480       158.761874000
        15            7.500000         1.079235726      2391.545833823      -780.932502189      -779.848718861       264.761591000
        16            8.000000         1.142633097      2532.032026476      -780.995525940      -779.848698554       133.257276000
        17            8.500000         1.202007774      2663.604082306      -781.053127697      -779.848668213       240.056652000
        18            9.000000         1.253094263      2776.809822903      -781.105390862      -779.848636232       139.246393000
        19            9.500000         1.301616528      2884.333338405      -781.152605780      -779.848597366       161.442104000
        20           10.000000         1.345083555      2980.654638685      -781.195126150      -779.848556197       187.320577000
        21           10.500000         1.383060567      3064.810271454      -781.233325719      -779.848517541       178.168774000
        22           11.000000         1.415712576      3137.165896544      -781.267592261      -779.848482067       182.996152000
        23           11.500000         1.444167472      3200.220876874      -781.298352020      -779.848451438       203.455177000
        24           12.000000         1.470575026      3258.739025805      -781.326017562      -779.848430064       208.640555000
        25           12.500000         1.493869283      3310.358223419      -781.350998344      -779.848424602       254.563051000
        26           13.000000         1.513920798      3354.791627907      -781.373672288      -779.848458321       384.918001000
        27           13.500000         1.534045547      3399.387314956      -781.394373228      -779.848508217       365.333430000
        28           14.000000         1.550888318      3436.710263441      -781.413295089      -779.848479992       393.872224000
        29           14.500000         1.566153067      3470.536374061      -781.430778018      -779.848454565       393.682552000
        30           15.000000         1.581141227      3503.749573168      -781.447085332      -779.848443347       340.025007000
        31           15.500000         1.596593943      3537.992212182      -781.462417931      -779.848435809       409.298899000
        32           16.000000         1.608746105      3564.920946151      -781.476966921      -779.848426344       409.299774000
        33           16.500000         1.620026990      3589.918964993      -781.490899526      -779.848410426       404.533824000
        34           17.000000         1.630857878      3613.919804645      -781.504363797      -779.848393044       255.894797000
        35           17.500000         1.643037966      3640.910423392      -781.517506245      -779.848383888       401.924206000
        36           18.000000         1.654036423      3665.282589782      -781.530434271      -779.848373503       243.293329000
        37           18.500000         1.663255491      3685.711697703      -781.543253735      -779.848369507       391.790147000
        38           19.000000         1.674228840      3710.028228736      -781.556066403      -779.848369930       398.428887000
        39           19.500000         1.687550157      3739.547765635      -781.568949109      -779.848365847       257.269786000
        40           20.000000         1.698541088      3763.903255661      -781.581968058      -779.848355308       394.820318000
        41           20.500000         1.711585622      3792.809452552      -781.595187769      -779.848348966       226.029299000
        42           21.000000         1.724749772      3821.980715581      -781.608661101      -779.848344540       347.256540000
        43           21.500000         1.737198269      3849.566116442      -781.622426521      -779.848343019       192.315793000
        44           22.000000         1.750233698      3878.452138736      -781.636516906      -779.848340669       331.717965000
        45           22.500000         1.761465183      3903.340687639      -781.650967524      -779.848339299       205.349981000
        46           23.000000         1.777785398      3939.505671768      -781.665795528      -779.848335406       323.450791000
        47           23.500000         1.790150039      3966.905251762      -781.681026563      -779.848336907       157.772943000
        48           24.000000         1.805292386      4000.460122256      -781.696656616      -779.848333441       267.707975000
        49           24.500000         1.821623443      4036.649133065      -781.712703721      -779.848333626       263.073625000
        50           25.000000         1.837279934      4071.343327659      -781.729179392      -779.848335354       159.330705000
        51           25.500000         1.852496861      4105.063467475      -781.746056052      -779.848333232       272.021277000
        52           26.000000         1.868768911      4141.121717928      -781.763339259      -779.848334118       145.953362000
        53           26.500000         1.885202559      4177.538065047      -781.781022739      -779.848334500       137.123482000
        54           27.000000         1.902846742      4216.636912452      -781.799090200      -779.848332989       164.385019000
        55           27.500000         1.918486450      4251.293916602      -781.817524814      -779.848334394       174.690278000
        56           28.000000         1.935664331      4289.359456824      -781.836303312      -779.848339451       166.629079000
        57           28.500000         1.953875463      4329.714640192      -781.855409777      -779.848343717       172.511799000
        58           29.000000         1.973271948      4372.696522659      -781.874814061      -779.848343994       193.191438000
        59           29.500000         1.992850369      4416.081569416      -781.894498450      -779.848343160       176.710371000
        60           30.000000         2.010993014      4456.284988811      -781.914438223      -779.848345609       161.943305000
        61           30.500000         2.030860383      4500.310332719      -781.934591335      -779.848348836       116.782909000
        62           31.000000         2.049727364      4542.118854747      -781.954920992      -779.848348803       156.579240000
        63           31.500000         2.070977765      4589.208943916      -781.975400040      -779.848349166       139.750323000
        64           32.000000         2.091164912      4633.942903671      -781.995997055      -779.848353907       155.296400000
        65           32.500000         2.111532846      4679.077479842      -782.016675693      -779.848360352       104.237823000
        66           33.000000         2.130608819      4721.349120728      -782.037390440      -779.848363341       117.653544000
        67           33.500000         2.150170444      4764.696946870      -782.058094910      -779.848363423       155.926772000
        68           34.000000         2.171715529      4812.440045427      -782.078762449      -779.848365092       123.446201000
        69           34.500000         2.191209383      4855.637694774      -782.099354818      -779.848369224       101.440368000
        70           35.000000         2.211545510      4900.701788249      -782.119824314      -779.848373912       108.295125000
        71           35.500000         2.229658796      4940.840150223      -782.140129832      -779.848378370       103.137607000
        72           36.000000         2.248922376      4983.527519106      -782.160220052      -779.848383212       106.058237000
        73           36.500000         2.269562318      5029.264856201      -782.180058540      -779.848388374        85.080723000
        74           37.000000         2.286604494      5067.029677251      -782.199595823      -779.848392471        78.649343000
        75           37.500000         2.303537239      5104.552004862      -782.218782386      -779.848394925        78.847868000
        76           38.000000         2.322073247      5145.627102481      -782.237581597      -779.848397762        83.966431000
        77           38.500000         2.339198722      5183.576512084      -782.255937880      -779.848403099        70.735363000
        78           39.000000         2.357557543      5224.258969588      -782.273808309      -779.848411037        52.025798000
        79           39.500000         2.373655519      5259.931479982      -782.291141710      -779.848420061        52.204153000
        80           40.000000         2.389288061      5294.572604294      -782.307881860      -779.848430304        86.320103000
        81           40.500000         2.404766790      5328.872886378      -782.323971395      -779.848444708       120.870789000
        82           41.000000         2.417536238      5357.169504668      -782.339358746      -779.848461353        77.251119000
        83           41.500000         2.429908202      5384.585312545      -782.353980908      -779.848477412       127.229133000
        84           42.000000         2.441331548      5409.899016927      -782.367786343      -779.848503942       231.871042000
        85           42.500000         2.454510790      5439.103723085      -782.380757470      -779.848570556       385.784451000
        86           43.000000         2.464920446      5462.171129242      -782.392809534      -779.848657607       385.517243000
        87           43.500000         2.474889252      5484.261629119      -782.403787023      -779.848663001       385.701675000
        88           44.000000         2.482133197      5500.313938591      -782.413708765      -779.848664056       384.789132000
        89           44.500000         2.491168847      5520.336600480      -782.422541740      -779.848678997       385.232716000
        90           45.000000         2.501060280      5542.255644933      -782.430206258      -779.848675750       385.088666000
        91           45.500000         2.510312213      5562.757581210      -782.436684846      -779.848686915       300.701672000
        92           46.000000         2.516877407      5577.305803280      -782.441924831      -779.848701708       216.445013000
        93           46.500000         2.517452392      5578.579949552      -782.445878813      -779.848704717       310.478985000
        94           47.000000         2.519506578      5583.131946993      -782.448536631      -779.848706125       311.651121000
