 DBCSR| CPU Multiplication driver                                           BLAS (U)
 DBCSR| Multrec recursion limit                                              512 (U)
 DBCSR| Multiplication stack size                                           1000 (D)
 DBCSR| Maximum elements for images                                    UNLIMITED (U)
 DBCSR| Multiplicative factor virtual images                                   1 (U)
 DBCSR| Use multiplication densification                                       T (D)
 DBCSR| Multiplication size stacks                                             3 (U)
 DBCSR| Use memory pool for CPU allocation                                     F (U)
 DBCSR| Number of 3D layers                                               SINGLE (U)
 DBCSR| Use MPI memory allocation                                              F (U)
 DBCSR| Use RMA algorithm                                                      F (U)
 DBCSR| Use Communication thread                                               T (U)
 DBCSR| Communication thread load                                             53 (D)
 DBCSR| MPI: My process id                                                     0
 DBCSR| MPI: Number of processes                                               1
 DBCSR| OMP: Current number of threads                                        10
 DBCSR| OMP: Max number of threads                                            10
 DBCSR| Split modifier for TAS multiplication algorithm                  1.0E+00 (U)


  **** **** ******  **  PROGRAM STARTED AT               2025-09-25 15:25:23.579
 ***** ** ***  *** **   PROGRAM STARTED ON                                   Mac
 **    ****   ******    PROGRAM STARTED BY                           jdmusgraves
 ***** **    ** ** **   PROGRAM PROCESS ID                                 80717
  **** **  *******  **  PROGRAM STARTED IN /Users/jdmusgraves/Downloads/local_sh
                                           akedown_kit

 CP2K| version string:                                       CP2K version 2025.1
 CP2K| source code revision number:                                             
 CP2K| cp2kflags: omp libint fftw3 libxc parallel scalapack no_statm_access     
 CP2K| is freely available from                            https://www.cp2k.org/
 CP2K| Program compiled at                                   2025-01-01 12:26:53
 CP2K| Program compiled on                                                      
 CP2K| Program compiled for                                                arm64
 CP2K| Data directory path      /opt/homebrew/Cellar/cp2k/2025.1/share/cp2k/data
 CP2K| Input file name                                         md_sp1_fixed2.inp

 GLOBAL| Force Environment number                                              1
 GLOBAL| Basis set file name                                        BASIS_MOLOPT
 GLOBAL| Potential file name                                      GTH_POTENTIALS
 GLOBAL| MM Potential file name                                     MM_POTENTIAL
 GLOBAL| Coordinate file name                          inputs/as2se3_cluster.xyz
 GLOBAL| Method name                                                        CP2K
 GLOBAL| Project name                                                     md_sp1
 GLOBAL| Run type                                                             MD
 GLOBAL| FFT library                                                       FFTW3
 GLOBAL| Diagonalization library                                       ScaLAPACK
 GLOBAL| DGEMM library                                                      BLAS
 GLOBAL| Orthonormality check for eigenvectors                          DISABLED
 GLOBAL| Matrix multiplication library                                 ScaLAPACK
 GLOBAL| All-to-all communication in single precision                          F
 GLOBAL| FFTs using library dependent lengths                                  F
 GLOBAL| Grid backend                                                       AUTO
 GLOBAL| Global print level                                                  LOW
 GLOBAL| MPI I/O enabled                                                       T
 GLOBAL| Total number of message passing processes                             1
 GLOBAL| Number of threads for this process                                   10
 GLOBAL| This output is from process                                           0
 GLOBAL| OpenMP stack size per thread (OMP_STACKSIZE)                    default
 GLOBAL| CPU model name                                                  UNKNOWN
 GLOBAL| CPUID                                                              2000

 MEMORY| system memory details [Kb]
 MEMORY|                        rank 0           min           max       average
 MEMORY| MemTotal                    0             0             0             0
 MEMORY| MemFree                     0             0             0             0
 MEMORY| Buffers                     0             0             0             0
 MEMORY| Cached                      0             0             0             0
 MEMORY| Slab                        0             0             0             0
 MEMORY| SReclaimable                0             0             0             0
 MEMORY| MemLikelyFree               0             0             0             0


 GENERATE|  Preliminary Number of Bonds generated:                             0
 GENERATE|  Achieved consistency in connectivity generation.

 *******************************************************************************
 *******************************************************************************
 **                                                                           **
 **     #####                         ##              ##                      **
 **    ##   ##            ##          ##              ##                      **
 **   ##     ##                       ##            ######                    **
 **   ##     ##  ##   ##  ##   #####  ##  ##   ####   ##    #####    #####    **
 **   ##     ##  ##   ##  ##  ##      ## ##   ##      ##   ##   ##  ##   ##   **
 **   ##  ## ##  ##   ##  ##  ##      ####     ###    ##   ######   ######    **
 **    ##  ###   ##   ##  ##  ##      ## ##      ##   ##   ##       ##        **
 **     #######   #####   ##   #####  ##  ##  ####    ##    #####   ##        **
 **           ##                                                    ##        **
 **                                                                           **
 **                                                ... make the atoms dance   **
 **                                                                           **
 **            Copyright (C) by CP2K developers group (2000-2025)             **
 **                      J. Chem. Phys. 152, 194103 (2020)                    **
 **                                                                           **
 *******************************************************************************


 TOTAL NUMBERS AND MAXIMUM NUMBERS

  Total number of            - Atomic kinds:                                   2
                             - Atoms:                                          5
                             - Shell sets:                                     5
                             - Shells:                                        25
                             - Primitive Cartesian functions:                 20
                             - Cartesian basis functions:                     70
                             - Spherical basis functions:                     65

  Maximum angular momentum of the orbital basis functions:                     2


 SCF PARAMETERS         Density guess:                                    ATOMIC
                        --------------------------------------------------------
                        max_scf:                                             120
                        max_scf_history:                                       0
                        max_diis:                                              4
                        --------------------------------------------------------
                        eps_scf:                                        1.00E-06
                        eps_scf_history:                                0.00E+00
                        eps_diis:                                       1.00E-01
                        eps_eigval:                                     1.00E-05
                        --------------------------------------------------------
                        level_shift [a.u.]:                             0.000000
                        --------------------------------------------------------
                        No outer SCF

 MD_PAR| Molecular dynamics protocol (MD input parameters)
 MD_PAR| Ensemble type                                                       NVT
 MD_PAR| Number of time steps                                                200
 MD_PAR| Time step [fs]                                                 0.500000
 MD_PAR| Temperature [K]                                              300.000000
 MD_PAR| Temperature tolerance [K]                                      0.000000
 MD_PAR| Print MD information every                                    1 step(s)
 MD_PAR| File type   Print frequency [steps]                          File names
 MD_PAR| Coordinates          5                                 md_sp1-pos-1.xyz
 MD_PAR| Velocities           5                                 md_sp1-vel-1.xyz
 MD_PAR| Energies             1                                    md_sp1-1.ener
 MD_PAR| Dump                20                                 md_sp1-1.restart

 ROT| Rotational analysis information
 ROT| Principal axes and moments of inertia [a.u.]
 ROT|                           1                   2                   3
 ROT| Eigenvalues      4.41467528537E+06   5.80644346564E+06   7.17290863490E+06
 ROT|      x              0.000000000000      0.000000000000      1.000000000000
 ROT|      y              0.000000000000     -1.000000000000      0.000000000000
 ROT|      z              1.000000000000      0.000000000000      0.000000000000
 ROT| Number of rotovibrational vectors                                        6

 DOF| Calculation of degrees of freedom
 DOF| Number of atoms                                                          5
 DOF| Number of intramolecular constraints                                     0
 DOF| Number of intermolecular constraints                                     0
 DOF| Invariants (translations + rotations)                                    3
 DOF| Degrees of freedom                                                      12

 DOF| Restraints information
 DOF| Number of intramolecular restraints                                      0
 DOF| Number of intermolecular restraints                                      0

 THERMOSTAT| Thermostat information for PARTICLES
 THERMOSTAT| Type of thermostat            Canonical Sampling/Velocity Rescaling
 THERMOSTAT| CSVR time constant [fs]                                 1000.000000
 THERMOSTAT| Initial kinetic energy                           0.000000000000E+00
 THERMOSTAT| End of thermostat information for PARTICLES

 MD_VEL| Velocities initialization
 MD_VEL| Initial temperature [K]                                      300.000000
 MD_VEL| COM velocity             0.0000000000    -0.0000000000     0.0000000000

 Number of electrons:                                                         28
 Number of occupied orbitals:                                                 14
 Number of molecular orbitals:                                                14

 Number of orbital functions:                                                 65
 Number of independent orbital functions:                                     65

 Extrapolation method: initial_guess


 SCF WAVEFUNCTION OPTIMIZATION

  ----------------------------------- OT ---------------------------------------
  Minimizer      : DIIS                : direct inversion
                                         in the iterative subspace
                                         using   7 DIIS vectors
                                         safer DIIS on
  Preconditioner : FULL_SINGLE_INVERSE : inversion of 
                                         H + eS - 2*(Sc)(c^T*H*c+const)(Sc)^T
  Precond_solver : DEFAULT
  stepsize       :    0.08000000                  energy_gap     :    0.08000000
  eps_taylor     :   0.10000E-15                  max_taylor     :             4
  ----------------------------------- OT ---------------------------------------

  Step     Update method      Time    Convergence         Total energy    Change
  ------------------------------------------------------------------------------
     1 OT DIIS     0.80E-01    1.3     0.12433056       -39.8532518734 -3.99E+01
     2 OT DIIS     0.80E-01    1.3     0.07624930       -40.3019415616 -4.49E-01
     3 OT DIIS     0.80E-01    1.3     0.04247236       -40.4664325242 -1.64E-01
     4 OT DIIS     0.80E-01    1.4     0.03661095       -40.5592019668 -9.28E-02
     5 OT DIIS     0.80E-01    1.3     0.03344325       -40.6481595507 -8.90E-02
     6 OT DIIS     0.80E-01    1.3     0.02727555       -40.7371625414 -8.90E-02
     7 OT DIIS     0.80E-01    1.3     0.01907822       -40.8002818542 -6.31E-02
     8 OT DIIS     0.80E-01    1.3     0.00996191       -40.8408841101 -4.06E-02
     9 OT DIIS     0.80E-01    1.3     0.00770650       -40.8459115052 -5.03E-03
    10 OT DIIS     0.80E-01    1.3     0.00492320       -40.8524431923 -6.53E-03
    11 OT DIIS     0.80E-01    1.4     0.00295660       -40.8565531292 -4.11E-03
    12 OT DIIS     0.80E-01    1.4     0.00193748       -40.8581667342 -1.61E-03
    13 OT DIIS     0.80E-01    1.3     0.00117956       -40.8586670674 -5.00E-04
    14 OT DIIS     0.80E-01    1.3     0.00072672       -40.8588982028 -2.31E-04
    15 OT DIIS     0.80E-01    1.3     0.00048291       -40.8589878851 -8.97E-05
    16 OT DIIS     0.80E-01    1.3     0.00034122       -40.8590318524 -4.40E-05
    17 OT DIIS     0.80E-01    1.3     0.00021647       -40.8590587032 -2.69E-05
    18 OT DIIS     0.80E-01    1.3     0.00014774       -40.8590688072 -1.01E-05
    19 OT DIIS     0.80E-01    1.3     0.00009704       -40.8590734071 -4.60E-06
    20 OT DIIS     0.80E-01    1.3     0.00006742       -40.8590751802 -1.77E-06
    21 OT DIIS     0.80E-01    1.3     0.00004249       -40.8590761299 -9.50E-07
    22 OT DIIS     0.80E-01    1.3     0.00002878       -40.8590764838 -3.54E-07
    23 OT DIIS     0.80E-01    1.3     0.00001989       -40.8590766344 -1.51E-07
    24 OT DIIS     0.80E-01    1.3     0.00001427       -40.8590767017 -6.74E-08
    25 OT DIIS     0.80E-01    1.3     0.00001012       -40.8590767357 -3.39E-08
    26 OT DIIS     0.80E-01    1.3     0.00000737       -40.8590767531 -1.74E-08
    27 OT DIIS     0.80E-01    1.3     0.00000514       -40.8590767635 -1.04E-08
    28 OT DIIS     0.80E-01    1.3     0.00000372       -40.8590767684 -4.86E-09
    29 OT DIIS     0.80E-01    1.3     0.00000286       -40.8590767707 -2.28E-09
    30 OT DIIS     0.80E-01    1.3     0.00000212       -40.8590767722 -1.54E-09
    31 OT DIIS     0.80E-01    1.3     0.00000141       -40.8590767732 -1.05E-09
    32 OT DIIS     0.80E-01    1.3     0.00000107       -40.8590767736 -3.75E-10
    33 OT DIIS     0.80E-01    1.3     0.00000077       -40.8590767739 -2.32E-10

  *** SCF run converged in    33 steps ***


  Electronic density on regular grids:        -28.0000000000        0.0000000000
  Core density on regular grids:               27.9999999999       -0.0000000001
  Total charge density on r-space grids:       -0.0000000001
  Total charge density g-space grids:          -0.0000000001

  Overlap energy of the core charge distribution:               0.00000000405870
  Self energy of the core charge distribution:                -86.86221981996565
  Core Hamiltonian energy:                                     19.30431541336150
  Hartree energy:                                              35.92213712561774
  Exchange-correlation energy:                                 -9.22155181542961
  Dispersion energy:                                           -0.00175768149439

  Total energy:                                               -40.85907677385172

 ENERGY| Total FORCE_EVAL ( QS ) energy [hartree]            -40.859076773971061

 MD_INI| MD initialization
 MD_INI| Potential energy [hartree]                          -0.408590767740E+02
 MD_INI| Kinetic energy [hartree]                             0.570026761792E-02
 MD_INI| Temperature [K]                                              300.000000
 MD_INI| Cell volume [bohr^3]                                 2.764117845234E+04
 MD_INI| Cell volume [ang^3]                                  4.096000000000E+03
 MD_INI| Cell lengths [bohr]      3.02356181E+01  3.02356181E+01  3.02356181E+01
 MD_INI| Cell lengths [ang]       1.60000000E+01  1.60000000E+01  1.60000000E+01
 MD_INI| Cell angles [deg]        9.00000000E+01  9.00000000E+01  9.00000000E+01

 Number of electrons:                                                         28
 Number of occupied orbitals:                                                 14
 Number of molecular orbitals:                                                14

 Number of orbital functions:                                                 65
 Number of independent orbital functions:                                     65

 Extrapolation method: ASPC


 SCF WAVEFUNCTION OPTIMIZATION

  ----------------------------------- OT ---------------------------------------
  Minimizer      : DIIS                : direct inversion
                                         in the iterative subspace
                                         using   7 DIIS vectors
                                         safer DIIS on
  Preconditioner : FULL_SINGLE_INVERSE : inversion of 
                                         H + eS - 2*(Sc)(c^T*H*c+const)(Sc)^T
  Precond_solver : DEFAULT
  stepsize       :    0.08000000                  energy_gap     :    0.08000000
  eps_taylor     :   0.10000E-15                  max_taylor     :             4
  ----------------------------------- OT ---------------------------------------

  Step     Update method      Time    Convergence         Total energy    Change
  ------------------------------------------------------------------------------
     1 OT DIIS     0.80E-01    1.2     0.00012924       -40.8590257065 -4.09E+01
     2 OT DIIS     0.80E-01    1.3     0.00009024       -40.8590264228 -7.16E-07
     3 OT DIIS     0.80E-01    1.3     0.00007321       -40.8590265942 -1.71E-07
     4 OT DIIS     0.80E-01    1.3     0.00002723       -40.8590267652 -1.71E-07
     5 OT DIIS     0.80E-01    1.3     0.00001662       -40.8590268008 -3.56E-08
     6 OT DIIS     0.80E-01    1.3     0.00000820       -40.8590268146 -1.38E-08
     7 OT DIIS     0.80E-01    1.3     0.00000384       -40.8590268179 -3.28E-09
     8 OT DIIS     0.80E-01    1.3     0.00000192       -40.8590268185 -5.84E-10
     9 OT DIIS     0.80E-01    1.3     0.00000101       -40.8590268187 -2.06E-10
    10 OT DIIS     0.80E-01    1.3     0.00000056       -40.8590268187 -7.76E-11

  *** SCF run converged in    10 steps ***


  Electronic density on regular grids:        -28.0000000000        0.0000000000
  Core density on regular grids:               27.9999999999       -0.0000000001
  Total charge density on r-space grids:       -0.0000000001
  Total charge density g-space grids:          -0.0000000001

  Overlap energy of the core charge distribution:               0.00000000407723
  Self energy of the core charge distribution:                -86.86221981996565
  Core Hamiltonian energy:                                     19.30473557475997
  Hartree energy:                                              35.92189576347259
  Exchange-correlation energy:                                 -9.22168005691904
  Dispersion energy:                                           -0.00175828416424

  Total energy:                                               -40.85902681873915

 ENERGY| Total FORCE_EVAL ( QS ) energy [hartree]            -40.859026818757918

 MD| ***************************************************************************
 MD| Step number                                                               1
 MD| Time [fs]                                                          0.500000
 MD| Conserved quantity [hartree]                            -0.408533764992E+02
 MD| ---------------------------------------------------------------------------
 MD|                                          Instantaneous             Averages
 MD| CPU time per MD step [s]                     60.054564            60.054564
 MD| Energy drift per atom [K]           0.448913286660E-03   0.000000000000E+00
 MD| Potential energy [hartree]         -0.408590268188E+02  -0.408590268188E+02
 MD| Kinetic energy [hartree]            0.562499305303E-02   0.562499305303E-02
 MD| Temperature [K]                             296.038367           296.038367
 MD| ***************************************************************************

 Number of electrons:                                                         28
 Number of occupied orbitals:                                                 14
 Number of molecular orbitals:                                                14

 Number of orbital functions:                                                 65
 Number of independent orbital functions:                                     65

 Extrapolation method: ASPC


 SCF WAVEFUNCTION OPTIMIZATION

  ----------------------------------- OT ---------------------------------------
  Minimizer      : DIIS                : direct inversion
                                         in the iterative subspace
                                         using   7 DIIS vectors
                                         safer DIIS on
  Preconditioner : FULL_SINGLE_INVERSE : inversion of 
                                         H + eS - 2*(Sc)(c^T*H*c+const)(Sc)^T
  Precond_solver : DEFAULT
  stepsize       :    0.08000000                  energy_gap     :    0.08000000
  eps_taylor     :   0.10000E-15                  max_taylor     :             4
  ----------------------------------- OT ---------------------------------------

  Step     Update method      Time    Convergence         Total energy    Change
  ------------------------------------------------------------------------------
     1 OT DIIS     0.80E-01    1.1     0.00000489       -40.8589813132 -4.09E+01
     2 OT DIIS     0.80E-01    1.3     0.00000513       -40.8589813139 -6.35E-10
     3 OT DIIS     0.80E-01    1.3     0.00000215       -40.8589813143 -4.10E-10
     4 OT DIIS     0.80E-01    1.3     0.00000094       -40.8589813145 -2.41E-10

  *** SCF run converged in     4 steps ***


  Electronic density on regular grids:        -28.0000000000        0.0000000000
  Core density on regular grids:               27.9999999999       -0.0000000001
  Total charge density on r-space grids:       -0.0000000001
  Total charge density g-space grids:          -0.0000000001

  Overlap energy of the core charge distribution:               0.00000000409552
  Self energy of the core charge distribution:                -86.86221981996565
  Core Hamiltonian energy:                                     19.30512061198380
  Hartree energy:                                              35.92167390545796
  Exchange-correlation energy:                                 -9.22179712406526
  Dispersion energy:                                           -0.00175889203653

  Total energy:                                               -40.85898131453015

 ENERGY| Total FORCE_EVAL ( QS ) energy [hartree]            -40.858981314582643

 MD| ***************************************************************************
 MD| Step number                                                               2
 MD| Time [fs]                                                          1.000000
 MD| Conserved quantity [hartree]                            -0.408533764935E+02
 MD| ---------------------------------------------------------------------------
 MD|                                          Instantaneous             Averages
 MD| CPU time per MD step [s]                      6.550502            33.302533
 MD| Energy drift per atom [K]           0.809667018566E-03   0.404833509283E-03
 MD| Potential energy [hartree]         -0.408589813146E+02  -0.408590040667E+02
 MD| Kinetic energy [hartree]            0.553284213136E-02   0.557891759220E-02
 MD| Temperature [K]                             291.188546           293.613456
 MD| ***************************************************************************

 Number of electrons:                                                         28
 Number of occupied orbitals:                                                 14
 Number of molecular orbitals:                                                14

 Number of orbital functions:                                                 65
 Number of independent orbital functions:                                     65

 Extrapolation method: ASPC


 SCF WAVEFUNCTION OPTIMIZATION

  ----------------------------------- OT ---------------------------------------
  Minimizer      : DIIS                : direct inversion
                                         in the iterative subspace
                                         using   7 DIIS vectors
                                         safer DIIS on
  Preconditioner : FULL_SINGLE_INVERSE : inversion of 
                                         H + eS - 2*(Sc)(c^T*H*c+const)(Sc)^T
  Precond_solver : DEFAULT
  stepsize       :    0.08000000                  energy_gap     :    0.08000000
  eps_taylor     :   0.10000E-15                  max_taylor     :             4
  ----------------------------------- OT ---------------------------------------

  Step     Update method      Time    Convergence         Total energy    Change
  ------------------------------------------------------------------------------
     1 OT DIIS     0.80E-01    1.1     0.00000331       -40.8589406897 -4.09E+01
     2 OT DIIS     0.80E-01    1.3     0.00000318       -40.8589406900 -3.69E-10
     3 OT DIIS     0.80E-01    1.3     0.00000165       -40.8589406902 -1.75E-10
     4 OT DIIS     0.80E-01    1.3     0.00000075       -40.8589406903 -1.45E-10

  *** SCF run converged in     4 steps ***


  Electronic density on regular grids:        -28.0000000000        0.0000000000
  Core density on regular grids:               27.9999999999       -0.0000000001
  Total charge density on r-space grids:       -0.0000000001
  Total charge density g-space grids:          -0.0000000001

  Overlap energy of the core charge distribution:               0.00000000411337
  Self energy of the core charge distribution:                -86.86221981996565
  Core Hamiltonian energy:                                     19.30546480141523
  Hartree energy:                                              35.92147601863837
  Exchange-correlation energy:                                 -9.22190219379794
  Dispersion energy:                                           -0.00175950074501

  Total energy:                                               -40.85894069034163

 ENERGY| Total FORCE_EVAL ( QS ) energy [hartree]            -40.858940690371924

 MD| ***************************************************************************
 MD| Step number                                                               3
 MD| Time [fs]                                                          1.500000
 MD| Conserved quantity [hartree]                            -0.408533764845E+02
 MD| ---------------------------------------------------------------------------
 MD|                                          Instantaneous             Averages
 MD| CPU time per MD step [s]                      6.555578            24.386881
 MD| Energy drift per atom [K]           0.138292423279E-02   0.730863750451E-03
 MD| Potential energy [hartree]         -0.408589406904E+02  -0.408589829412E+02
 MD| Kinetic energy [hartree]            0.539466228980E-02   0.551749915807E-02
 MD| Temperature [K]                             283.916264           290.381059
 MD| ***************************************************************************

 Number of electrons:                                                         28
 Number of occupied orbitals:                                                 14
 Number of molecular orbitals:                                                14

 Number of orbital functions:                                                 65
 Number of independent orbital functions:                                     65

 Extrapolation method: ASPC


 SCF WAVEFUNCTION OPTIMIZATION

  ----------------------------------- OT ---------------------------------------
  Minimizer      : DIIS                : direct inversion
                                         in the iterative subspace
                                         using   7 DIIS vectors
                                         safer DIIS on
  Preconditioner : FULL_SINGLE_INVERSE : inversion of 
                                         H + eS - 2*(Sc)(c^T*H*c+const)(Sc)^T
  Precond_solver : DEFAULT
  stepsize       :    0.08000000                  energy_gap     :    0.08000000
  eps_taylor     :   0.10000E-15                  max_taylor     :             4
  ----------------------------------- OT ---------------------------------------

  Step     Update method      Time    Convergence         Total energy    Change
  ------------------------------------------------------------------------------
     1 OT DIIS     0.80E-01    1.1     0.00000283       -40.8589047000 -4.09E+01
     2 OT DIIS     0.80E-01    1.3     0.00000328       -40.8589047000 -5.61E-11
     3 OT DIIS     0.80E-01    1.3     0.00000073       -40.8589047002 -1.68E-10

  *** SCF run converged in     3 steps ***


  Electronic density on regular grids:        -28.0000000000        0.0000000000
  Core density on regular grids:               27.9999999999       -0.0000000001
  Total charge density on r-space grids:       -0.0000000001
  Total charge density g-space grids:          -0.0000000001

  Overlap energy of the core charge distribution:               0.00000000413085
  Self energy of the core charge distribution:                -86.86221981996565
  Core Hamiltonian energy:                                     19.30577522677022
  Hartree energy:                                              35.92129647944088
  Exchange-correlation energy:                                 -9.22199647502540
  Dispersion energy:                                           -0.00176011554282

  Total energy:                                               -40.85890470019192

 ENERGY| Total FORCE_EVAL ( QS ) energy [hartree]            -40.858904700211852

 MD| ***************************************************************************
 MD| Step number                                                               4
 MD| Time [fs]                                                          2.000000
 MD| Conserved quantity [hartree]                            -0.408533764778E+02
 MD| ---------------------------------------------------------------------------
 MD|                                          Instantaneous             Averages
 MD| CPU time per MD step [s]                      5.286526            19.611793
 MD| Energy drift per atom [K]           0.180305426105E-02   0.998911378102E-03
 MD| Potential energy [hartree]         -0.408589047002E+02  -0.408589633810E+02
 MD| Kinetic energy [hartree]            0.531987989354E-02   0.546809434193E-02
 MD| Temperature [K]                             279.980533           287.780928
 MD| ***************************************************************************

 Number of electrons:                                                         28
 Number of occupied orbitals:                                                 14
 Number of molecular orbitals:                                                14

 Number of orbital functions:                                                 65
 Number of independent orbital functions:                                     65

 Extrapolation method: ASPC


 SCF WAVEFUNCTION OPTIMIZATION

  ----------------------------------- OT ---------------------------------------
  Minimizer      : DIIS                : direct inversion
                                         in the iterative subspace
                                         using   7 DIIS vectors
                                         safer DIIS on
  Preconditioner : FULL_SINGLE_INVERSE : inversion of 
                                         H + eS - 2*(Sc)(c^T*H*c+const)(Sc)^T
  Precond_solver : DEFAULT
  stepsize       :    0.08000000                  energy_gap     :    0.08000000
  eps_taylor     :   0.10000E-15                  max_taylor     :             4
  ----------------------------------- OT ---------------------------------------

  Step     Update method      Time    Convergence         Total energy    Change
  ------------------------------------------------------------------------------
     1 OT DIIS     0.80E-01    1.1     0.00000255       -40.8588736164 -4.09E+01
     2 OT DIIS     0.80E-01    1.3     0.00000186       -40.8588736167 -2.60E-10
     3 OT DIIS     0.80E-01    1.3     0.00000122       -40.8588736167 -7.62E-11
     4 OT DIIS     0.80E-01    1.3     0.00000050       -40.8588736168 -6.29E-11

  *** SCF run converged in     4 steps ***


  Electronic density on regular grids:        -28.0000000000        0.0000000000
  Core density on regular grids:               27.9999999999       -0.0000000001
  Total charge density on r-space grids:       -0.0000000001
  Total charge density g-space grids:          -0.0000000001

  Overlap energy of the core charge distribution:               0.00000000414780
  Self energy of the core charge distribution:                -86.86221981996565
  Core Hamiltonian energy:                                     19.30604571380385
  Hartree energy:                                              35.92113854574259
  Exchange-correlation energy:                                 -9.22207732723499
  Dispersion energy:                                           -0.00176073328633

  Total energy:                                               -40.85887361679274

 ENERGY| Total FORCE_EVAL ( QS ) energy [hartree]            -40.858873616804658

 MD| ***************************************************************************
 MD| Step number                                                               5
 MD| Time [fs]                                                          2.500000
 MD| Conserved quantity [hartree]                            -0.408533764738E+02
 MD| ---------------------------------------------------------------------------
 MD|                                          Instantaneous             Averages
 MD| CPU time per MD step [s]                      6.552298            16.999894
 MD| Energy drift per atom [K]           0.205504351669E-02   0.121013780582E-02
 MD| Potential energy [hartree]         -0.408588736168E+02  -0.408589454281E+02
 MD| Kinetic energy [hartree]            0.530617102066E-02   0.543570967768E-02
 MD| Temperature [K]                             279.259048           286.076552
 MD| ***************************************************************************

 Number of electrons:                                                         28
 Number of occupied orbitals:                                                 14
 Number of molecular orbitals:                                                14

 Number of orbital functions:                                                 65
 Number of independent orbital functions:                                     65

 Extrapolation method: ASPC


 SCF WAVEFUNCTION OPTIMIZATION

  ----------------------------------- OT ---------------------------------------
  Minimizer      : DIIS                : direct inversion
                                         in the iterative subspace
                                         using   7 DIIS vectors
                                         safer DIIS on
  Preconditioner : FULL_SINGLE_INVERSE : inversion of 
                                         H + eS - 2*(Sc)(c^T*H*c+const)(Sc)^T
  Precond_solver : DEFAULT
  stepsize       :    0.08000000                  energy_gap     :    0.08000000
  eps_taylor     :   0.10000E-15                  max_taylor     :             4
  ----------------------------------- OT ---------------------------------------

  Step     Update method      Time    Convergence         Total energy    Change
  ------------------------------------------------------------------------------
     1 OT DIIS     0.80E-01    1.1     0.00000229       -40.8588471139 -4.09E+01
     2 OT DIIS     0.80E-01    1.3     0.00000276       -40.8588471139 -7.15E-11
     3 OT DIIS     0.80E-01    1.3     0.00000080       -40.8588471141 -1.13E-10

  *** SCF run converged in     3 steps ***


  Electronic density on regular grids:        -28.0000000000        0.0000000000
  Core density on regular grids:               27.9999999999       -0.0000000001
  Total charge density on r-space grids:       -0.0000000001
  Total charge density g-space grids:          -0.0000000001

  Overlap energy of the core charge distribution:               0.00000000416438
  Self energy of the core charge distribution:                -86.86221981996565
  Core Hamiltonian energy:                                     19.30628097058306
  Hartree energy:                                              35.92099990822467
  Exchange-correlation energy:                                 -9.22214681498929
  Dispersion energy:                                           -0.00176136207277

  Total energy:                                               -40.85884711405559

 ENERGY| Total FORCE_EVAL ( QS ) energy [hartree]            -40.858847114088128

 MD| ***************************************************************************
 MD| Step number                                                               6
 MD| Time [fs]                                                          3.000000
 MD| Conserved quantity [hartree]                            -0.408533764699E+02
 MD| ---------------------------------------------------------------------------
 MD|                                          Instantaneous             Averages
 MD| CPU time per MD step [s]                      5.312035            15.051917
 MD| Energy drift per atom [K]           0.229927535616E-02   0.139166073088E-02
 MD| Potential energy [hartree]         -0.408588471141E+02  -0.408589290425E+02
 MD| Kinetic energy [hartree]            0.536508799000E-02   0.542393939640E-02
 MD| Temperature [K]                             282.359795           285.457092
 MD| ***************************************************************************

 Number of electrons:                                                         28
 Number of occupied orbitals:                                                 14
 Number of molecular orbitals:                                                14

 Number of orbital functions:                                                 65
 Number of independent orbital functions:                                     65

 Extrapolation method: ASPC


 SCF WAVEFUNCTION OPTIMIZATION

  ----------------------------------- OT ---------------------------------------
  Minimizer      : DIIS                : direct inversion
                                         in the iterative subspace
                                         using   7 DIIS vectors
                                         safer DIIS on
  Preconditioner : FULL_SINGLE_INVERSE : inversion of 
                                         H + eS - 2*(Sc)(c^T*H*c+const)(Sc)^T
  Precond_solver : DEFAULT
  stepsize       :    0.08000000                  energy_gap     :    0.08000000
  eps_taylor     :   0.10000E-15                  max_taylor     :             4
  ----------------------------------- OT ---------------------------------------

  Step     Update method      Time    Convergence         Total energy    Change
  ------------------------------------------------------------------------------
     1 OT DIIS     0.80E-01    1.1     0.00000257       -40.8588255081 -4.09E+01
     2 OT DIIS     0.80E-01    1.3     0.00000185       -40.8588255083 -2.64E-10
     3 OT DIIS     0.80E-01    1.3     0.00000132       -40.8588255084 -6.81E-11
     4 OT DIIS     0.80E-01    1.3     0.00000054       -40.8588255085 -5.94E-11

  *** SCF run converged in     4 steps ***


  Electronic density on regular grids:        -28.0000000000        0.0000000000
  Core density on regular grids:               27.9999999999       -0.0000000001
  Total charge density on r-space grids:       -0.0000000001
  Total charge density g-space grids:          -0.0000000001

  Overlap energy of the core charge distribution:               0.00000000418039
  Self energy of the core charge distribution:                -86.86221981996565
  Core Hamiltonian energy:                                     19.30647635352025
  Hartree energy:                                              35.92088432527545
  Exchange-correlation energy:                                 -9.22220437515888
  Dispersion energy:                                           -0.00176199632585

  Total energy:                                               -40.85882550847430

 ENERGY| Total FORCE_EVAL ( QS ) energy [hartree]            -40.858825508487122

 MD| ***************************************************************************
 MD| Step number                                                               7
 MD| Time [fs]                                                          3.500000
 MD| Conserved quantity [hartree]                            -0.408533764666E+02
 MD| ---------------------------------------------------------------------------
 MD|                                          Instantaneous             Averages
 MD| CPU time per MD step [s]                      6.561720            13.839032
 MD| Energy drift per atom [K]           0.250866276872E-02   0.155123245057E-02
 MD| Potential energy [hartree]         -0.408588255085E+02  -0.408589142519E+02
 MD| Kinetic energy [hartree]            0.520220194739E-02   0.539226261797E-02
 MD| Temperature [K]                             273.787248           283.789972
 MD| ***************************************************************************

 Number of electrons:                                                         28
 Number of occupied orbitals:                                                 14
 Number of molecular orbitals:                                                14

 Number of orbital functions:                                                 65
 Number of independent orbital functions:                                     65

 Extrapolation method: ASPC


 SCF WAVEFUNCTION OPTIMIZATION

  ----------------------------------- OT ---------------------------------------
  Minimizer      : DIIS                : direct inversion
                                         in the iterative subspace
                                         using   7 DIIS vectors
                                         safer DIIS on
  Preconditioner : FULL_SINGLE_INVERSE : inversion of 
                                         H + eS - 2*(Sc)(c^T*H*c+const)(Sc)^T
  Precond_solver : DEFAULT
  stepsize       :    0.08000000                  energy_gap     :    0.08000000
  eps_taylor     :   0.10000E-15                  max_taylor     :             4
  ----------------------------------- OT ---------------------------------------

  Step     Update method      Time    Convergence         Total energy    Change
  ------------------------------------------------------------------------------
     1 OT DIIS     0.80E-01    1.1     0.00000301       -40.8588090104 -4.09E+01
     2 OT DIIS     0.80E-01    1.3     0.00000407       -40.8588090105 -3.49E-11
     3 OT DIIS     0.80E-01    1.3     0.00000096       -40.8588090107 -2.41E-10

  *** SCF run converged in     3 steps ***


  Electronic density on regular grids:        -28.0000000000        0.0000000000
  Core density on regular grids:               27.9999999999       -0.0000000001
  Total charge density on r-space grids:       -0.0000000001
  Total charge density g-space grids:          -0.0000000001

  Overlap energy of the core charge distribution:               0.00000000419565
  Self energy of the core charge distribution:                -86.86221981996565
  Core Hamiltonian energy:                                     19.30663310504454
  Hartree energy:                                              35.92079003462123
  Exchange-correlation energy:                                 -9.22224970304024
  Dispersion energy:                                           -0.00176263157615

  Total energy:                                               -40.85880901072060

 ENERGY| Total FORCE_EVAL ( QS ) energy [hartree]            -40.858809010774593

 MD| ***************************************************************************
 MD| Step number                                                               8
 MD| Time [fs]                                                          4.000000
 MD| Conserved quantity [hartree]                            -0.408533764596E+02
 MD| ---------------------------------------------------------------------------
 MD|                                          Instantaneous             Averages
 MD| CPU time per MD step [s]                      5.333475            12.775837
 MD| Energy drift per atom [K]           0.295530048082E-02   0.172674095435E-02
 MD| Potential energy [hartree]         -0.408588090108E+02  -0.408589010968E+02
 MD| Kinetic energy [hartree]            0.511754273759E-02   0.535792263292E-02
 MD| Temperature [K]                             269.331709           281.982689
 MD| ***************************************************************************

 Number of electrons:                                                         28
 Number of occupied orbitals:                                                 14
 Number of molecular orbitals:                                                14

 Number of orbital functions:                                                 65
 Number of independent orbital functions:                                     65

 Extrapolation method: ASPC


 SCF WAVEFUNCTION OPTIMIZATION

  ----------------------------------- OT ---------------------------------------
  Minimizer      : DIIS                : direct inversion
                                         in the iterative subspace
                                         using   7 DIIS vectors
                                         safer DIIS on
  Preconditioner : FULL_SINGLE_INVERSE : inversion of 
                                         H + eS - 2*(Sc)(c^T*H*c+const)(Sc)^T
  Precond_solver : DEFAULT
  stepsize       :    0.08000000                  energy_gap     :    0.08000000
  eps_taylor     :   0.10000E-15                  max_taylor     :             4
  ----------------------------------- OT ---------------------------------------

  Step     Update method      Time    Convergence         Total energy    Change
  ------------------------------------------------------------------------------
     1 OT DIIS     0.80E-01    1.1     0.00000258       -40.8587974145 -4.09E+01
     2 OT DIIS     0.80E-01    1.3     0.00000244       -40.8587974147 -2.04E-10
     3 OT DIIS     0.80E-01    1.3     0.00000121       -40.8587974148 -9.76E-11
     4 OT DIIS     0.80E-01    1.4     0.00000058       -40.8587974149 -6.13E-11

  *** SCF run converged in     4 steps ***


  Electronic density on regular grids:        -28.0000000000        0.0000000000
  Core density on regular grids:               27.9999999999       -0.0000000001
  Total charge density on r-space grids:       -0.0000000001
  Total charge density g-space grids:          -0.0000000001

  Overlap energy of the core charge distribution:               0.00000000421036
  Self energy of the core charge distribution:                -86.86221981996565
  Core Hamiltonian energy:                                     19.30674958036325
  Hartree energy:                                              35.92071885313000
  Exchange-correlation energy:                                 -9.22228275444737
  Dispersion energy:                                           -0.00176327816143

  Total energy:                                               -40.85879741487086

 ENERGY| Total FORCE_EVAL ( QS ) energy [hartree]            -40.858797414885920

 MD| ***************************************************************************
 MD| Step number                                                               9
 MD| Time [fs]                                                          4.500000
 MD| Conserved quantity [hartree]                            -0.408533764540E+02
 MD| ---------------------------------------------------------------------------
 MD|                                          Instantaneous             Averages
 MD| CPU time per MD step [s]                      6.716536            12.102582
 MD| Energy drift per atom [K]           0.330853687394E-02   0.190249605653E-02
 MD| Potential energy [hartree]         -0.408587974149E+02  -0.408588895766E+02
 MD| Kinetic energy [hartree]            0.513745973699E-02   0.533342675560E-02
 MD| Temperature [K]                             270.379923           280.693493
 MD| ***************************************************************************

 Number of electrons:                                                         28
 Number of occupied orbitals:                                                 14
 Number of molecular orbitals:                                                14

 Number of orbital functions:                                                 65
 Number of independent orbital functions:                                     65

 Extrapolation method: ASPC


 SCF WAVEFUNCTION OPTIMIZATION

  ----------------------------------- OT ---------------------------------------
  Minimizer      : DIIS                : direct inversion
                                         in the iterative subspace
                                         using   7 DIIS vectors
                                         safer DIIS on
  Preconditioner : FULL_SINGLE_INVERSE : inversion of 
                                         H + eS - 2*(Sc)(c^T*H*c+const)(Sc)^T
  Precond_solver : DEFAULT
  stepsize       :    0.08000000                  energy_gap     :    0.08000000
  eps_taylor     :   0.10000E-15                  max_taylor     :             4
  ----------------------------------- OT ---------------------------------------

  Step     Update method      Time    Convergence         Total energy    Change
  ------------------------------------------------------------------------------
     1 OT DIIS     0.80E-01    1.1     0.00000365       -40.8587909681 -4.09E+01
     2 OT DIIS     0.80E-01    1.3     0.00000458       -40.8587909682 -1.12E-10
     3 OT DIIS     0.80E-01    1.3     0.00000106       -40.8587909685 -2.94E-10
     4 OT DIIS     0.80E-01    1.3     0.00000058       -40.8587909685 -4.30E-11

  *** SCF run converged in     4 steps ***


  Electronic density on regular grids:        -28.0000000000        0.0000000000
  Core density on regular grids:               27.9999999999       -0.0000000001
  Total charge density on r-space grids:       -0.0000000001
  Total charge density g-space grids:          -0.0000000001

  Overlap energy of the core charge distribution:               0.00000000422419
  Self energy of the core charge distribution:                -86.86221981996565
  Core Hamiltonian energy:                                     19.30682599794891
  Hartree energy:                                              35.92066961983641
  Exchange-correlation energy:                                 -9.22230284575333
  Dispersion energy:                                           -0.00176392481927

  Total energy:                                               -40.85879096852874

 ENERGY| Total FORCE_EVAL ( QS ) energy [hartree]            -40.858790968540212

 MD| ***************************************************************************
 MD| Step number                                                              10
 MD| Time [fs]                                                          5.000000
 MD| Conserved quantity [hartree]                            -0.408533764509E+02
 MD| ---------------------------------------------------------------------------
 MD|                                          Instantaneous             Averages
 MD| CPU time per MD step [s]                      6.560593            11.548383
 MD| Energy drift per atom [K]           0.349908202656E-02   0.206215465353E-02
 MD| Potential energy [hartree]         -0.408587909685E+02  -0.408588797158E+02
 MD| Kinetic energy [hartree]            0.516092023121E-02   0.531617610316E-02
 MD| Temperature [K]                             271.614628           279.785606
 MD| ***************************************************************************

 Number of electrons:                                                         28
 Number of occupied orbitals:                                                 14
 Number of molecular orbitals:                                                14

 Number of orbital functions:                                                 65
 Number of independent orbital functions:                                     65

 Extrapolation method: ASPC


 SCF WAVEFUNCTION OPTIMIZATION

  ----------------------------------- OT ---------------------------------------
  Minimizer      : DIIS                : direct inversion
                                         in the iterative subspace
                                         using   7 DIIS vectors
                                         safer DIIS on
  Preconditioner : FULL_SINGLE_INVERSE : inversion of 
                                         H + eS - 2*(Sc)(c^T*H*c+const)(Sc)^T
  Precond_solver : DEFAULT
  stepsize       :    0.08000000                  energy_gap     :    0.08000000
  eps_taylor     :   0.10000E-15                  max_taylor     :             4
  ----------------------------------- OT ---------------------------------------

  Step     Update method      Time    Convergence         Total energy    Change
  ------------------------------------------------------------------------------
     1 OT DIIS     0.80E-01    1.1     0.00000279       -40.8587896003 -4.09E+01
     2 OT DIIS     0.80E-01    1.3     0.00000195       -40.8587896006 -2.80E-10
     3 OT DIIS     0.80E-01    1.3     0.00000113       -40.8587896006 -7.95E-11
     4 OT DIIS     0.80E-01    1.3     0.00000062       -40.8587896007 -4.59E-11

  *** SCF run converged in     4 steps ***


  Electronic density on regular grids:        -28.0000000000        0.0000000000
  Core density on regular grids:               27.9999999999       -0.0000000001
  Total charge density on r-space grids:       -0.0000000001
  Total charge density g-space grids:          -0.0000000001

  Overlap energy of the core charge distribution:               0.00000000423735
  Self energy of the core charge distribution:                -86.86221981996565
  Core Hamiltonian energy:                                     19.30686291129962
  Hartree energy:                                              35.92064189291467
  Exchange-correlation energy:                                 -9.22231000703680
  Dispersion energy:                                           -0.00176458214355

  Total energy:                                               -40.85878960069436

 ENERGY| Total FORCE_EVAL ( QS ) energy [hartree]            -40.858789600705663

 MD| ***************************************************************************
 MD| Step number                                                              11
 MD| Time [fs]                                                          5.500000
 MD| Conserved quantity [hartree]                            -0.408533764483E+02
 MD| ---------------------------------------------------------------------------
 MD|                                          Instantaneous             Averages
 MD| CPU time per MD step [s]                      6.590021            11.097623
 MD| Energy drift per atom [K]           0.366653263282E-02   0.220800719710E-02
 MD| Potential energy [hartree]         -0.408587896007E+02  -0.408588715235E+02
 MD| Kinetic energy [hartree]            0.519014800148E-02   0.530471900301E-02
 MD| Temperature [K]                             273.152860           279.182629
 MD| ***************************************************************************

 Number of electrons:                                                         28
 Number of occupied orbitals:                                                 14
 Number of molecular orbitals:                                                14

 Number of orbital functions:                                                 65
 Number of independent orbital functions:                                     65

 Extrapolation method: ASPC


 SCF WAVEFUNCTION OPTIMIZATION

  ----------------------------------- OT ---------------------------------------
  Minimizer      : DIIS                : direct inversion
                                         in the iterative subspace
                                         using   7 DIIS vectors
                                         safer DIIS on
  Preconditioner : FULL_SINGLE_INVERSE : inversion of 
                                         H + eS - 2*(Sc)(c^T*H*c+const)(Sc)^T
  Precond_solver : DEFAULT
  stepsize       :    0.08000000                  energy_gap     :    0.08000000
  eps_taylor     :   0.10000E-15                  max_taylor     :             4
  ----------------------------------- OT ---------------------------------------

  Step     Update method      Time    Convergence         Total energy    Change
  ------------------------------------------------------------------------------
     1 OT DIIS     0.80E-01    1.1     0.00000251       -40.8587933586 -4.09E+01
     2 OT DIIS     0.80E-01    1.3     0.00000290       -40.8587933587 -1.01E-10
     3 OT DIIS     0.80E-01    1.3     0.00000091       -40.8587933588 -1.26E-10

  *** SCF run converged in     3 steps ***


  Electronic density on regular grids:        -28.0000000000        0.0000000000
  Core density on regular grids:               27.9999999999       -0.0000000001
  Total charge density on r-space grids:       -0.0000000001
  Total charge density g-space grids:          -0.0000000001

  Overlap energy of the core charge distribution:               0.00000000424977
  Self energy of the core charge distribution:                -86.86221981996565
  Core Hamiltonian energy:                                     19.30686261118635
  Hartree energy:                                              35.92063405840173
  Exchange-correlation energy:                                 -9.22230496312010
  Dispersion energy:                                           -0.00176524955365

  Total energy:                                               -40.85879335880155

 ENERGY| Total FORCE_EVAL ( QS ) energy [hartree]            -40.858793358840302

 MD| ***************************************************************************
 MD| Step number                                                              12
 MD| Time [fs]                                                          6.000000
 MD| Conserved quantity [hartree]                            -0.408533764474E+02
 MD| ---------------------------------------------------------------------------
 MD|                                          Instantaneous             Averages
 MD| CPU time per MD step [s]                      5.266234            10.611674
 MD| Energy drift per atom [K]           0.372529684405E-02   0.233444800102E-02
 MD| Potential energy [hartree]         -0.408587933588E+02  -0.408588650098E+02
 MD| Kinetic energy [hartree]            0.515006499381E-02   0.529183116891E-02
 MD| Temperature [K]                             271.043327           278.504354
 MD| ***************************************************************************

 Number of electrons:                                                         28
 Number of occupied orbitals:                                                 14
 Number of molecular orbitals:                                                14

 Number of orbital functions:                                                 65
 Number of independent orbital functions:                                     65

 Extrapolation method: ASPC


 SCF WAVEFUNCTION OPTIMIZATION

  ----------------------------------- OT ---------------------------------------
  Minimizer      : DIIS                : direct inversion
                                         in the iterative subspace
                                         using   7 DIIS vectors
                                         safer DIIS on
  Preconditioner : FULL_SINGLE_INVERSE : inversion of 
                                         H + eS - 2*(Sc)(c^T*H*c+const)(Sc)^T
  Precond_solver : DEFAULT
  stepsize       :    0.08000000                  energy_gap     :    0.08000000
  eps_taylor     :   0.10000E-15                  max_taylor     :             4
  ----------------------------------- OT ---------------------------------------

  Step     Update method      Time    Convergence         Total energy    Change
  ------------------------------------------------------------------------------
     1 OT DIIS     0.80E-01    1.1     0.00000220       -40.8588022402 -4.09E+01
     2 OT DIIS     0.80E-01    1.3     0.00000155       -40.8588022404 -2.15E-10
     3 OT DIIS     0.80E-01    1.3     0.00000117       -40.8588022405 -6.43E-11
     4 OT DIIS     0.80E-01    1.3     0.00000051       -40.8588022406 -6.14E-11

  *** SCF run converged in     4 steps ***


  Electronic density on regular grids:        -28.0000000000        0.0000000000
  Core density on regular grids:               27.9999999999       -0.0000000001
  Total charge density on r-space grids:       -0.0000000001
  Total charge density g-space grids:          -0.0000000001

  Overlap energy of the core charge distribution:               0.00000000426132
  Self energy of the core charge distribution:                -86.86221981996565
  Core Hamiltonian energy:                                     19.30681801733358
  Hartree energy:                                              35.92065237501341
  Exchange-correlation energy:                                 -9.22228689533307
  Dispersion energy:                                           -0.00176592187391

  Total energy:                                               -40.85880224056432

 ENERGY| Total FORCE_EVAL ( QS ) energy [hartree]            -40.858802240577745

 MD| ***************************************************************************
 MD| Step number                                                              13
 MD| Time [fs]                                                          6.500000
 MD| Conserved quantity [hartree]                            -0.408533764466E+02
 MD| ---------------------------------------------------------------------------
 MD|                                          Instantaneous             Averages
 MD| CPU time per MD step [s]                      6.586985            10.302082
 MD| Energy drift per atom [K]           0.377203115925E-02   0.244503132088E-02
 MD| Potential energy [hartree]         -0.408588022406E+02  -0.408588601814E+02
 MD| Kinetic energy [hartree]            0.528048435097E-02   0.529095833676E-02
 MD| Temperature [K]                             277.907181           278.458418
 MD| ***************************************************************************

 Number of electrons:                                                         28
 Number of occupied orbitals:                                                 14
 Number of molecular orbitals:                                                14

 Number of orbital functions:                                                 65
 Number of independent orbital functions:                                     65

 Extrapolation method: ASPC


 SCF WAVEFUNCTION OPTIMIZATION

  ----------------------------------- OT ---------------------------------------
  Minimizer      : DIIS                : direct inversion
                                         in the iterative subspace
                                         using   7 DIIS vectors
                                         safer DIIS on
  Preconditioner : FULL_SINGLE_INVERSE : inversion of 
                                         H + eS - 2*(Sc)(c^T*H*c+const)(Sc)^T
  Precond_solver : DEFAULT
  stepsize       :    0.08000000                  energy_gap     :    0.08000000
  eps_taylor     :   0.10000E-15                  max_taylor     :             4
  ----------------------------------- OT ---------------------------------------

  Step     Update method      Time    Convergence         Total energy    Change
  ------------------------------------------------------------------------------
     1 OT DIIS     0.80E-01    1.1     0.00000345       -40.8588165014 -4.09E+01
     2 OT DIIS     0.80E-01    1.3     0.00000313       -40.8588165017 -3.63E-10
     3 OT DIIS     0.80E-01    1.3     0.00000153       -40.8588165019 -1.62E-10
     4 OT DIIS     0.80E-01    1.3     0.00000080       -40.8588165020 -8.84E-11

  *** SCF run converged in     4 steps ***


  Electronic density on regular grids:        -28.0000000000        0.0000000000
  Core density on regular grids:               27.9999999999       -0.0000000001
  Total charge density on r-space grids:       -0.0000000001
  Total charge density g-space grids:          -0.0000000001

  Overlap energy of the core charge distribution:               0.00000000427227
  Self energy of the core charge distribution:                -86.86221981996565
  Core Hamiltonian energy:                                     19.30673116540641
  Hartree energy:                                              35.92069456567712
  Exchange-correlation energy:                                 -9.22225580154620
  Dispersion energy:                                           -0.00176661583725

  Total energy:                                               -40.85881650199329

 ENERGY| Total FORCE_EVAL ( QS ) energy [hartree]            -40.858816502013745

 MD| ***************************************************************************
 MD| Step number                                                              14
 MD| Time [fs]                                                          7.000000
 MD| Conserved quantity [hartree]                            -0.408533764480E+02
 MD| ---------------------------------------------------------------------------
 MD|                                          Instantaneous             Averages
 MD| CPU time per MD step [s]                      6.554027            10.034364
 MD| Energy drift per atom [K]           0.368653668777E-02   0.253371027566E-02
 MD| Potential energy [hartree]         -0.408588165020E+02  -0.408588570614E+02
 MD| Kinetic energy [hartree]            0.539907507231E-02   0.529868096072E-02
 MD| Temperature [K]                             284.148505           278.864852
 MD| ***************************************************************************

 Number of electrons:                                                         28
 Number of occupied orbitals:                                                 14
 Number of molecular orbitals:                                                14

 Number of orbital functions:                                                 65
 Number of independent orbital functions:                                     65

 Extrapolation method: ASPC


 SCF WAVEFUNCTION OPTIMIZATION

  ----------------------------------- OT ---------------------------------------
  Minimizer      : DIIS                : direct inversion
                                         in the iterative subspace
                                         using   7 DIIS vectors
                                         safer DIIS on
  Preconditioner : FULL_SINGLE_INVERSE : inversion of 
                                         H + eS - 2*(Sc)(c^T*H*c+const)(Sc)^T
  Precond_solver : DEFAULT
  stepsize       :    0.08000000                  energy_gap     :    0.08000000
  eps_taylor     :   0.10000E-15                  max_taylor     :             4
  ----------------------------------- OT ---------------------------------------

  Step     Update method      Time    Convergence         Total energy    Change
  ------------------------------------------------------------------------------
     1 OT DIIS     0.80E-01    1.1     0.00000401       -40.8588358192 -4.09E+01
     2 OT DIIS     0.80E-01    1.3     0.00000396       -40.8588358196 -3.76E-10
     3 OT DIIS     0.80E-01    1.3     0.00000151       -40.8588358198 -2.39E-10
     4 OT DIIS     0.80E-01    1.3     0.00000079       -40.8588358199 -7.66E-11

  *** SCF run converged in     4 steps ***


  Electronic density on regular grids:        -28.0000000000        0.0000000000
  Core density on regular grids:               27.9999999999       -0.0000000001
  Total charge density on r-space grids:       -0.0000000001
  Total charge density g-space grids:          -0.0000000001

  Overlap energy of the core charge distribution:               0.00000000428234
  Self energy of the core charge distribution:                -86.86221981996565
  Core Hamiltonian energy:                                     19.30660557567685
  Hartree energy:                                              35.92075762615946
  Exchange-correlation energy:                                 -9.22221189144706
  Dispersion energy:                                           -0.00176731457736

  Total energy:                                               -40.85883581987142

 ENERGY| Total FORCE_EVAL ( QS ) energy [hartree]            -40.858835819888014

 MD| ***************************************************************************
 MD| Step number                                                              15
 MD| Time [fs]                                                          7.500000
 MD| Conserved quantity [hartree]                            -0.408533764488E+02
 MD| ---------------------------------------------------------------------------
 MD|                                          Instantaneous             Averages
 MD| CPU time per MD step [s]                      6.531594             9.800846
 MD| Energy drift per atom [K]           0.363169718076E-02   0.260690940266E-02
 MD| Potential energy [hartree]         -0.408588358199E+02  -0.408588556453E+02
 MD| Kinetic energy [hartree]            0.540797100663E-02   0.530596696378E-02
 MD| Temperature [K]                             284.616690           279.248308
 MD| ***************************************************************************

 Number of electrons:                                                         28
 Number of occupied orbitals:                                                 14
 Number of molecular orbitals:                                                14

 Number of orbital functions:                                                 65
 Number of independent orbital functions:                                     65

 Extrapolation method: ASPC


 SCF WAVEFUNCTION OPTIMIZATION

  ----------------------------------- OT ---------------------------------------
  Minimizer      : DIIS                : direct inversion
                                         in the iterative subspace
                                         using   7 DIIS vectors
                                         safer DIIS on
  Preconditioner : FULL_SINGLE_INVERSE : inversion of 
                                         H + eS - 2*(Sc)(c^T*H*c+const)(Sc)^T
  Precond_solver : DEFAULT
  stepsize       :    0.08000000                  energy_gap     :    0.08000000
  eps_taylor     :   0.10000E-15                  max_taylor     :             4
  ----------------------------------- OT ---------------------------------------

  Step     Update method      Time    Convergence         Total energy    Change
  ------------------------------------------------------------------------------
     1 OT DIIS     0.80E-01    1.1     0.00000322       -40.8588604069 -4.09E+01
     2 OT DIIS     0.80E-01    1.3     0.00000286       -40.8588604072 -2.99E-10
     3 OT DIIS     0.80E-01    1.3     0.00000126       -40.8588604074 -1.42E-10
     4 OT DIIS     0.80E-01    1.3     0.00000068       -40.8588604075 -6.77E-11

  *** SCF run converged in     4 steps ***


  Electronic density on regular grids:        -28.0000000000        0.0000000000
  Core density on regular grids:               27.9999999999       -0.0000000001
  Total charge density on r-space grids:       -0.0000000001
  Total charge density g-space grids:          -0.0000000001

  Overlap energy of the core charge distribution:               0.00000000429159
  Self energy of the core charge distribution:                -86.86221981996565
  Core Hamiltonian energy:                                     19.30643730869324
  Hartree energy:                                              35.92084466324216
  Exchange-correlation energy:                                 -9.22215453798360
  Dispersion energy:                                           -0.00176802573407

  Total energy:                                               -40.85886040745633

 ENERGY| Total FORCE_EVAL ( QS ) energy [hartree]            -40.858860407470317

 MD| ***************************************************************************
 MD| Step number                                                              16
 MD| Time [fs]                                                          8.000000
 MD| Conserved quantity [hartree]                            -0.408533764479E+02
 MD| ---------------------------------------------------------------------------
 MD|                                          Instantaneous             Averages
 MD| CPU time per MD step [s]                      6.598967             9.600728
 MD| Energy drift per atom [K]           0.369222629728E-02   0.267474170858E-02
 MD| Potential energy [hartree]         -0.408588604075E+02  -0.408588559429E+02
 MD| Kinetic energy [hartree]            0.549430721460E-02   0.531773822946E-02
 MD| Temperature [K]                             289.160488           279.867820
 MD| ***************************************************************************

 Number of electrons:                                                         28
 Number of occupied orbitals:                                                 14
 Number of molecular orbitals:                                                14

 Number of orbital functions:                                                 65
 Number of independent orbital functions:                                     65

 Extrapolation method: ASPC


 SCF WAVEFUNCTION OPTIMIZATION

  ----------------------------------- OT ---------------------------------------
  Minimizer      : DIIS                : direct inversion
                                         in the iterative subspace
                                         using   7 DIIS vectors
                                         safer DIIS on
  Preconditioner : FULL_SINGLE_INVERSE : inversion of 
                                         H + eS - 2*(Sc)(c^T*H*c+const)(Sc)^T
  Precond_solver : DEFAULT
  stepsize       :    0.08000000                  energy_gap     :    0.08000000
  eps_taylor     :   0.10000E-15                  max_taylor     :             4
  ----------------------------------- OT ---------------------------------------

  Step     Update method      Time    Convergence         Total energy    Change
  ------------------------------------------------------------------------------
     1 OT DIIS     0.80E-01    1.1     0.00000296       -40.8588900328 -4.09E+01
     2 OT DIIS     0.80E-01    1.3     0.00000347       -40.8588900329 -9.36E-11
     3 OT DIIS     0.80E-01    1.3     0.00000085       -40.8588900331 -1.79E-10

  *** SCF run converged in     3 steps ***


  Electronic density on regular grids:        -28.0000000000        0.0000000000
  Core density on regular grids:               27.9999999999       -0.0000000001
  Total charge density on r-space grids:       -0.0000000001
  Total charge density g-space grids:          -0.0000000001

  Overlap energy of the core charge distribution:               0.00000000429995
  Self energy of the core charge distribution:                -86.86221981996565
  Core Hamiltonian energy:                                     19.30623102583546
  Hartree energy:                                              35.92095231720514
  Exchange-correlation energy:                                 -9.22208481770660
  Dispersion energy:                                           -0.00176874273087

  Total energy:                                               -40.85889003306256

 ENERGY| Total FORCE_EVAL ( QS ) energy [hartree]            -40.858890033089928

 MD| ***************************************************************************
 MD| Step number                                                              17
 MD| Time [fs]                                                          8.500000
 MD| Conserved quantity [hartree]                            -0.408533764488E+02
 MD| ---------------------------------------------------------------------------
 MD|                                          Instantaneous             Averages
 MD| CPU time per MD step [s]                      5.278803             9.346498
 MD| Energy drift per atom [K]           0.363329560249E-02   0.273112723175E-02
 MD| Potential energy [hartree]         -0.408588900331E+02  -0.408588579482E+02
 MD| Kinetic energy [hartree]            0.546943781114E-02   0.532666173427E-02
 MD| Temperature [K]                             287.851633           280.337456
 MD| ***************************************************************************

 Number of electrons:                                                         28
 Number of occupied orbitals:                                                 14
 Number of molecular orbitals:                                                14

 Number of orbital functions:                                                 65
 Number of independent orbital functions:                                     65

 Extrapolation method: ASPC


 SCF WAVEFUNCTION OPTIMIZATION

  ----------------------------------- OT ---------------------------------------
  Minimizer      : DIIS                : direct inversion
                                         in the iterative subspace
                                         using   7 DIIS vectors
                                         safer DIIS on
  Preconditioner : FULL_SINGLE_INVERSE : inversion of 
[...]
  Hartree energy:                                              35.87354341062706
  Exchange-correlation energy:                                 -9.24989059659764
  Dispersion energy:                                           -0.00134755852207

  Total energy:                                               -40.87130522130062

 ENERGY| Total FORCE_EVAL ( QS ) energy [hartree]            -40.871305221330104

 MD| ***************************************************************************
 MD| Step number                                                             199
 MD| Time [fs]                                                         99.500000
 MD| Conserved quantity [hartree]                            -0.408533772411E+02
 MD| ---------------------------------------------------------------------------
 MD|                                          Instantaneous             Averages
 MD| CPU time per MD step [s]                      5.333128             5.784485
 MD| Energy drift per atom [K]          -0.464003962848E-01  -0.256040464231E-01
 MD| Potential energy [hartree]         -0.408713052213E+02  -0.408680490002E+02
 MD| Kinetic energy [hartree]            0.176011019603E-01   0.148374367626E-01
 MD| Temperature [K]                             926.330296           780.881062
 MD| ***************************************************************************

 Number of electrons:                                                         28
 Number of occupied orbitals:                                                 14
 Number of molecular orbitals:                                                14

 Number of orbital functions:                                                 65
 Number of independent orbital functions:                                     65

 Extrapolation method: ASPC


 SCF WAVEFUNCTION OPTIMIZATION

  ----------------------------------- OT ---------------------------------------
  Minimizer      : DIIS                : direct inversion
                                         in the iterative subspace
                                         using   7 DIIS vectors
                                         safer DIIS on
  Preconditioner : FULL_SINGLE_INVERSE : inversion of 
                                         H + eS - 2*(Sc)(c^T*H*c+const)(Sc)^T
  Precond_solver : DEFAULT
  stepsize       :    0.08000000                  energy_gap     :    0.08000000
  eps_taylor     :   0.10000E-15                  max_taylor     :             4
  ----------------------------------- OT ---------------------------------------

  Step     Update method      Time    Convergence         Total energy    Change
  ------------------------------------------------------------------------------
     1 OT DIIS     0.80E-01    1.1     0.00000173       -40.8710898718 -4.09E+01
     2 OT DIIS     0.80E-01    1.3     0.00000198       -40.8710898718 -3.95E-11
     3 OT DIIS     0.80E-01    1.3     0.00000054       -40.8710898719 -6.19E-11

  *** SCF run converged in     3 steps ***


  Electronic density on regular grids:        -28.0000000000        0.0000000000
  Core density on regular grids:               27.9999999999       -0.0000000001
  Total charge density on r-space grids:       -0.0000000001
  Total charge density g-space grids:          -0.0000000001

  Overlap energy of the core charge distribution:               0.00000000771046
  Self energy of the core charge distribution:                -86.86221981996565
  Core Hamiltonian energy:                                     19.37125210782151
  Hartree energy:                                              35.87199042791618
  Exchange-correlation energy:                                 -9.25076935032924
  Dispersion energy:                                           -0.00134324501829

  Total energy:                                               -40.87108987186504

 ENERGY| Total FORCE_EVAL ( QS ) energy [hartree]            -40.871089871881424

 MD| ***************************************************************************
 MD| Step number                                                             200
 MD| Time [fs]                                                        100.000000
 MD| Conserved quantity [hartree]                            -0.408533772264E+02
 MD| ---------------------------------------------------------------------------
 MD|                                          Instantaneous             Averages
 MD| CPU time per MD step [s]                      5.336111             5.782243
 MD| Energy drift per atom [K]          -0.454747391340E-01  -0.257033998867E-01
 MD| Potential energy [hartree]         -0.408710898719E+02  -0.408680642046E+02
 MD| Kinetic energy [hartree]            0.173995124300E-01   0.148502471409E-01
 MD| Temperature [K]                             915.720819           781.555260
 MD| ***************************************************************************

 -------------------------------------------------------------------------------
 -                                                                             -
 -                                DBCSR STATISTICS                             -
 -                                                                             -
 -------------------------------------------------------------------------------
 COUNTER                                    TOTAL       BLAS       SMM       ACC
 flops    14 x    14 x    14              5262992     100.0%      0.0%      0.0%     
 flops    14 x    14 x    65             68286400     100.0%      0.0%      0.0%     
 flops    13 x    14 x    14             85358000     100.0%      0.0%      0.0%     
 flops    13 x    13 x    14             90357540     100.0%      0.0%      0.0%     
 flops    13 x    14 x    65            103039300     100.0%      0.0%      0.0%     
 flops    13 x    14 x    13            371107100     100.0%      0.0%      0.0%     
 flops inhomo. stacks                           0       0.0%      0.0%      0.0%
 flops total                       723.411332E+06     100.0%      0.0%      0.0%
 flops max/rank                    723.411332E+06     100.0%      0.0%      0.0%
 matmuls inhomo. stacks                         0       0.0%      0.0%      0.0%
 matmuls total                             122264     100.0%      0.0%      0.0%
 number of processed stacks                 46794     100.0%      0.0%      0.0%
 average stack size                                     2.6       0.0       0.0
 marketing flops                   788.701632E+06
 -------------------------------------------------------------------------------
 # multiplications                          12471
 max memory usage/rank               0.000000E+00
 # max total images/rank                        1
 # max 3D layers                                1
 # MPI messages exchanged                       0
 -------------------------------------------------------------------------------
 -                                                                             -
 -                      DBCSR MESSAGE PASSING PERFORMANCE                      -
 -                                                                             -
 -------------------------------------------------------------------------------
 ROUTINE             CALLS      AVE VOLUME [Bytes]
 MP_Bcast                7                     12.
 MP_Allreduce        61515                      8.
 MP_Alltoall         80344                   3354.
 MP_ISend            49080                    148.
 MP_IRecv            49080                    148.
 -------------------------------------------------------------------------------

 -------------------------------------------------------------------------------
 -                                                                             -
 -                                DBM STATISTICS                               -
 -                                                                             -
 -------------------------------------------------------------------------------
    M  x    N  x    K                                          COUNT     PERCENT
 -------------------------------------------------------------------------------

 -------------------------------------------------------------------------------
 -                                                                             -
 -                                GRID STATISTICS                              -
 -                                                                             -
 -------------------------------------------------------------------------------
 LP    KERNEL             BACKEND                              COUNT     PERCENT
 4     collocate ortho    CPU                                 206702      49.76%
 4     integrate ortho    CPU                                 158982      38.27%
 5     integrate ortho    CPU                                  47720      11.49%
 0     collocate general  CPU                                   1005       0.24%
 1     integrate general  CPU                                   1005       0.24%
 -------------------------------------------------------------------------------

 MEMORY| Estimated peak process memory [MiB]                                   0

 -------------------------------------------------------------------------------
 -                                                                             -
 -                         MESSAGE PASSING PERFORMANCE                         -
 -                                                                             -
 -------------------------------------------------------------------------------

 ROUTINE             CALLS      AVE VOLUME [Bytes]
 MP_Group                4
 MP_Bcast            18838                    746.
 MP_Allreduce        65263                    245.
 MP_Sync                37
 MP_comm_split          33
 -------------------------------------------------------------------------------


 -------------------------------------------------------------------------------
 -                                                                             -
 -                           R E F E R E N C E S                               -
 -                                                                             -
 -------------------------------------------------------------------------------
 
 CP2K version 2025.1, the CP2K developers group (2025).
 CP2K is freely available from https://www.cp2k.org/ .
 
 T. D. Kuehne, M. Iannuzzi, M. Del Ben, V. V. Rybkin, P. Seewald, F. Stein, T. 
 Laino, R. Z. Khaliullin, O. Schuett, F. Schiffmann, D. Golze, J. Wilhelm, S. 
 Chulkov, M. H. Bani-Hashemian, V. Weber, U. Borstnik, M. Taillefumier, A. S. 
 Jakobovits, A. Lazzaro, H. Pabst, T. Mueller, R. Schade, M. Guidon, S. 
 Andermatt, N. Holmberg, G. K. Schenter, A. Hehn, A. Bussy, F. Belleflamme, G. 
 Tabacchi, A. Gloess, M. Lass, I. Bethune, C. J. Mundy, C. Plessl, M. Watkins, 
 J. VandeVondele, M. Krack, J. Hutter.
 J. Chem. Phys. 152, 194103 (2020).
 CP2K: An electronic structure and molecular dynamics software package - 
 Quickstep: Efficient and accurate electronic structure calculations.
 https://doi.org/10.1063/5.0007045

 L. Goerigk, A. Hansen, C. Bauer, S. Ehrlich, A. Najibi, S. Grimme.
 Phys. Chem. Chem. Phys. 19, 32184-32215 (2017).
 A look at the density functional theory zoo with the advanced GMTKN55 database 
 for general main group thermochemistry, kinetics and noncovalent interactions.
 https://doi.org/10.1039/C7CP04913G

 O. Schuett, P. Messmer, J. Hutter, J. VandeVondele.
 Electronic Structure Calculations on Graphics Processing Units, 173-190 (2016).
 GPU-Accelerated Sparse Matrix-Matrix Multiplication for Linear Scaling Density 
 Functional Theory.
 https://doi.org/10.1002/9781118670712.ch8

 J. Hutter, M. Iannuzzi, F. Schiffmann, J. VandeVondele.
 WIREs Comput Mol Sci. 4, 15-25 (2014).
 CP2K: atomistic simulations of condensed matter systems.
 https://doi.org/10.1002/wcms.1159

 U. Borstnik, J. VandeVondele, V. Weber, J. Hutter.
 Parallel Comput. 40, 47-58 (2014).
 Sparse matrix multiplication: The distributed block-compressed sparse row 
 library.
 https://doi.org/10.1016/j.parco.2014.03.012

 S. Grimme, S. Ehrlich, L. Goerigk.
 J. Comput. Chem. 32, 1456 (2011).
 Effect of the damping function in dispersion corrected density functional 
 theory.
 https://doi.org/10.1002/jcc.21759

 S. Grimme, J. Antony, S. Ehrlich, H. Krieg.
 J. Chem. Phys. 132, 154104 (2010).
 A consistent and accurate ab initio parametrization of density functional 
 dispersion correction (DFT-D) for the 94 elements H-Pu.
 https://doi.org/10.1063/1.3382344

 G. Bussi, D. Donadio, M. Parrinello.
 J. Chem. Phys. 126, 014101 (2007).
 Canonical sampling through velocity rescaling.
 https://doi.org/10.1063/1.2408420

 J. VandeVondele, J. Hutter.
 J. Chem. Phys. 127, 114105 (2007).
 Gaussian basis sets for accurate calculations on molecular systems in gas and 
 condensed phases.
 https://doi.org/10.1063/1.2770708

 T. D. Khne, M. Krack, F. R. Mohamed, M. Parrinello.
 Phys. Rev. Lett. 98, 066401 (2007).
 Efficient and accurate Car-Parrinello-like approach to Born-Oppenheimer 
 molecular dynamics.
 https://doi.org/10.1103/PhysRevLett.98.066401

 J. VandeVondele, M. Krack, F. Mohamed, M. Parrinello, T. Chassaing, J. Hutter.
 Comput. Phys. Commun. 167, 103-128 (2005).
 QUICKSTEP: Fast and accurate density functional calculations using a mixed 
 Gaussian and plane waves approach.
 https://doi.org/10.1016/j.cpc.2004.12.014

 M. Krack.
 Theor. Chem. Acc. 114, 145-152 (2005).
 Pseudopotentials for H to Kr optimized for gradient-corrected 
 exchange-correlation functionals.
 https://doi.org/10.1007/s00214-005-0655-y

 M. Frigo, S. G. Johnson.
 Proc. IEEE 93, 216-231 (2005).
 The design and implementation of FFTW3.
 https://doi.org/10.1109/JPROC.2004.840301

 J. Kolafa.
 J. Comput. Chem. 25, 335-342 (2004).
 Time-reversible always stable predictor-corrector method for molecular dynamics 
 of polarizable molecules.
 https://doi.org/10.1002/jcc.10385

 J. VandeVondele, J. Hutter.
 J. Chem. Phys. 118, 4365-4369 (2003).
 An efficient orbital transformation method for electronic structure 
 calculations.
 https://doi.org/10.1063/1.1543154

 C. Hartwigsen, S. Goedecker, J. Hutter.
 Phys. Rev. B 58, 3641-3662 (1998).
 Relativistic separable dual-space Gaussian pseudopotentials from H to Rn.
 https://doi.org/10.1103/PhysRevB.58.3641

 G. Lippert, J. Hutter, M. Parrinello.
 Mol. Phys. 92, 477-487 (1997).
 A hybrid Gaussian and plane wave density functional scheme.
 https://doi.org/10.1080/002689797170220

 S. Goedecker, M. Teter, J. Hutter.
 Phys. Rev. B 54, 1703-1710 (1996).
 Separable dual-space Gaussian pseudopotentials.
 https://doi.org/10.1103/PhysRevB.54.1703

 J. P. Perdew, K. Burke, M. Ernzerhof.
 Phys. Rev. Lett. 77, 3865-3868 (1996).
 Generalized gradient approximation made simple.
 https://doi.org/10.1103/PhysRevLett.77.3865


 -------------------------------------------------------------------------------
 -                                                                             -
 -                                T I M I N G                                  -
 -                                                                             -
 -------------------------------------------------------------------------------
 SUBROUTINE                       CALLS  ASD         SELF TIME        TOTAL TIME
                                MAXIMUM       AVERAGE  MAXIMUM  AVERAGE  MAXIMUM
 CP2K                                 1  1.0    0.046    0.046 1158.087 1158.087
 qs_mol_dyn_low                       1  2.0    0.005    0.005 1156.453 1156.453
 qs_forces                          201  4.0    0.009    0.009 1156.076 1156.076
 velocity_verlet                    200  3.0    0.008    0.008 1110.600 1110.600
 qs_energies                        201  5.0    0.007    0.007  958.215  958.215
 scf_env_do_scf                     201  6.0    0.005    0.005  873.674  873.674
 rebuild_ks_matrix                  871  8.3    0.001    0.001  852.493  852.493
 qs_ks_build_kohn_sham_matrix       871  9.3    0.077    0.077  852.492  852.492
 fft_wrap_pw1pw2                  15008 12.8    0.177    0.177  706.303  706.303
 fft_wrap_pw1pw2_250               9782 14.1   88.663   88.663  679.429  679.429
 scf_env_do_scf_inner_loop          670  7.0    0.050    0.050  662.278  662.278
 qs_ks_update_qs_env                871  8.0    0.004    0.004  655.284  655.284
 qs_vxc_create                      871 10.3    0.007    0.007  625.012  625.012
 xc_vxc_pw_create                   871 11.3   38.370   38.370  625.005  625.005
 xc_pw_derive                      5226 13.3    0.049    0.049  398.747  398.747
 fft3d_s                          15009 14.8  388.221  388.221  388.244  388.244
 xc_rho_set_and_dset_create         871 12.3   13.435   13.435  312.025  312.025
 xc_pw_divergence                   871 12.3    0.027    0.027  270.489  270.489
 init_scf_loop                      201  7.0    0.003    0.003  211.175  211.175
 qs_rho_update_rho_low              871  8.2    0.003    0.003  206.164  206.164
 calculate_rho_elec                 871  9.2   33.346   33.346  206.161  206.161
 qs_ks_update_qs_env_forces         201  5.0    0.000    0.000  197.229  197.229
 density_rs2pw                      871 10.2    0.044    0.044  142.861  142.861
 pw_scatter_s                      7839 15.0  138.519  138.519  138.519  138.519
 xc_functional_eval                 871 13.3    0.005    0.005   97.449   97.449
 pbe_lda_eval                       871 14.3   97.445   97.445   97.445   97.445
 sum_up_and_integrate               871 10.3    0.011    0.011   86.243   86.243
 integrate_v_rspace                 871 11.3    0.169    0.169   83.956   83.956
 potential_pw2rs                    871 12.3    1.126    1.126   79.666   79.666
 pw_poisson_solve                   871 10.3    0.017    0.017   72.943   72.943
 pw_gather_s                       7169 14.5   63.883   63.883   63.883   63.883
 init_scf_run                       201  6.0    0.004    0.004   56.885   56.885
 scf_env_initial_rho_setup          201  7.0    0.003    0.003   56.881   56.881
 wfi_extrapolate                    201  8.0    0.007    0.007   56.348   56.348
 qs_scf_new_mos                     670  8.0    0.003    0.003   49.200   49.200
 qs_scf_loop_do_ot                  670  9.0    0.003    0.003   49.197   49.197
 dbcsr_multiply_generic           12471 12.2    1.106    1.106   46.913   46.913
 ot_scf_mini                        670 10.0    0.007    0.007   46.669   46.669
 pw_integral_ab_c1d_c1d_gs          871 11.3   43.253   43.253   43.253   43.253
 pw_derive                         7839 13.6   41.327   41.327   41.327   41.327
 ot_mini                            670 11.0    0.003    0.003   31.829   31.829
 grid_collocate_task_list           871 10.2   29.954   29.954   29.954   29.954
 pw_copy                          13065 12.8   28.453   28.453   28.453   28.453
 qs_energies_init_hamiltonians      201  6.0    0.003    0.003   26.130   26.130
 qs_env_update_s_mstruct            201  7.0    0.002    0.002   25.466   25.466
 qs_ot_get_derivative               670 12.0    0.004    0.004   24.462   24.462
 -------------------------------------------------------------------------------

 The number of warnings for this run is : 0
 
 -------------------------------------------------------------------------------
  **** **** ******  **  PROGRAM ENDED AT                 2025-09-25 15:44:41.828
 ***** ** ***  *** **   PROGRAM RAN ON                                       Mac
 **    ****   ******    PROGRAM RAN BY                               jdmusgraves
 ***** **    ** ** **   PROGRAM PROCESS ID                                 80717
  **** **  *******  **  PROGRAM STOPPED IN /Users/jdmusgraves/Downloads/local_sh
                                           akedown_kit
