#     Step Nr.          Time[fs]        Kin.[a.u.]          Temp[K]            Pot.[a.u.]        Cons Qty[a.u.]        UsedTime[s]
         0            0.000000         0.135381356       300.000000000      -779.965873397      -779.830492041         0.000000000
       308          154.000000         2.915742890      6461.176733960      -783.108923214      -779.850235691      1861.463873000
