      96
 i =        0, time =        0.000, E =      -779.9658733966
 As         9.2384800000        6.5738000000        7.6014500000
 As        13.3641400000       19.0770500000       13.9780300000
 As         5.1886600000        8.5583500000       16.7797800000
 As        19.9827300000       12.4841100000       16.5378900000
 As         3.1194000000        0.7243700000       13.7408100000
 As         8.9779500000       16.0357000000       18.9270100000
 As         8.5425800000        0.4466000000       19.6472000000
 As         7.1214500000        2.7367300000        3.4818700000
 As         3.0517500000        4.4310000000       17.8429600000
 As        10.7261000000       13.9421800000        5.5442500000
 As         3.0183600000       11.5891200000        9.1137500000
 As         7.6937500000        7.9699500000       17.1561100000
 As        13.4701000000        0.3968800000        8.3280100000
 As        17.3855100000       18.3420500000       15.3849800000
 As         0.4388800000       12.8704600000        4.8990500000
 As         1.6885800000        0.5824700000       18.5519600000
 As        15.1023200000       10.4940600000        8.4467000000
 As        11.0935000000       11.0504700000        0.6525500000
 As         9.5431600000       17.6472300000       10.5508900000
 As        14.1231800000       14.4540600000        4.1772100000
 As         4.6074000000       16.6121600000       11.6471300000
 As        15.7885500000        1.2014400000        9.6943800000
 As        18.6273800000       14.1471600000        5.7806200000
 As         4.6436300000       18.8455100000       11.3703700000
 As        19.7469500000       15.5583400000        1.4724000000
 As         8.2080400000       16.4411800000        5.0976400000
 As         3.6234600000        2.6404600000       14.8836100000
 As         2.6479800000        7.3509100000       13.6977200000
 As         2.6553500000        8.1112800000       10.6138700000
 As         0.4454200000        1.9943400000       16.5969400000
 As         1.9205600000       18.6182000000       10.0091700000
 As        14.2315800000        7.7436900000       14.6901700000
 As        13.9949000000       15.7068100000        2.1574400000
 As        16.9422800000        2.7790500000       13.6932600000
 As         6.9166500000        0.4813700000       17.0040800000
 As         3.8979400000       15.3091600000       13.5790600000
 As        13.1047400000        4.3727800000        4.4398200000
 As        17.1428600000        0.7383300000       19.0374300000
 Se        19.1929400000        6.9143600000       10.7323000000
 Se        17.9850300000        4.7037400000       15.7000500000
 Se        15.7944300000        0.7178000000       12.6729500000
 Se        17.7059300000       17.9745000000        4.9469200000
 Se         2.8658900000       12.9406500000       18.9680000000
 Se         9.2486500000       10.4760700000        7.5547500000
 Se        13.1560900000       11.7008400000        9.6651400000
 Se        17.1816100000        8.4925600000        7.6325600000
 Se         5.6896900000       10.4313100000        8.9668600000
 Se        10.6155700000       19.2128500000        1.7080800000
 Se        11.4453700000        7.3286700000        5.6096700000
 Se        10.1616000000       13.5157600000        8.1721800000
 Se        16.6374800000        9.5584800000        3.3096200000
 Se        19.1753100000        6.9315100000       14.1167100000
 Se         1.4426600000       11.0603800000        1.2989600000
 Se        15.6363800000        7.2381800000        9.8760500000
 Se        19.2417000000        7.1654900000        4.7031100000
 Se         6.4812500000        7.6073000000        2.7048500000
 Se        18.9351900000        4.2825500000        3.5123900000
 Se        12.1593400000       17.5548900000        5.5042900000
 Se         5.4842000000        0.6276100000        9.6536100000
 Se        16.9840600000       15.8828100000        2.4683100000
 Se        11.9299800000       17.2878200000        0.9385600000
 Se         1.0347100000        7.2722100000        8.3756800000
 Se         8.6283500000       11.6418500000       14.4258300000
 Se        10.4641900000        7.2967900000       13.0130300000
 Se         1.8561000000        8.7835400000        3.6558100000
 Se         0.9523000000        0.1738300000        5.7122700000
 Se        19.3459600000       12.1090400000        2.6635700000
 Se         3.6386600000        3.4299800000        1.9166700000
 Se        18.7706000000        1.6488100000        7.1525500000
 Se         5.1635500000        9.5077900000        0.2121100000
 Se        11.1200700000       15.1397500000       16.6247500000
 Se         8.5089300000        1.1886500000        1.4872400000
 Se        19.9232100000        3.4682900000       19.7129500000
 Se         2.4084700000       17.1091400000        7.6854100000
 Se         5.7953700000       15.6190100000        0.9145300000
 Se         6.4662100000       15.2416600000        8.3315800000
 Se        15.0690000000        4.7563700000        0.3289400000
 Se        18.3721100000        8.9173900000       18.0547100000
 Se        10.1611300000        2.8242800000       19.1339600000
 Se         4.7425600000        8.5320500000        6.1977600000
 Se        14.0326000000        6.4961000000       19.5569200000
 Se         1.3549400000        5.1952800000       19.5254300000
 Se        13.5867900000        7.8583400000        0.1502100000
 Se        11.7480800000       19.3970700000        8.7148200000
 Se        15.2197900000       16.3968700000        7.5517300000
 Se         0.7029600000       16.7924500000        0.6346900000
 Se         1.7923500000        2.9324800000       19.1671700000
 Se        13.0771900000       11.1435600000        3.4103800000
 Se        13.4599900000       11.9522500000        1.2725400000
 Se         3.8640300000       18.9435100000       16.7166500000
 Se        13.7521400000       12.8097600000       19.9465300000
 Se         4.9678800000       17.5348100000        3.1025400000
 Se         6.7962100000       14.1489700000       13.0564500000
 Se         2.1831000000        0.2887100000       10.0156000000
 Se         6.5195500000       10.8877500000       14.2710000000
 Se         8.9340400000        5.2908000000       12.1200100000
      96
 i =        5, time =        2.500, E =      -780.1369786303
 As         9.2467425003        6.5698684090        7.5994351763
 As        13.3676201087       19.0752608271       13.9755553482
 As         5.1883621220        8.5549628310       16.7754205441
 As        19.9926645033       12.4769412496       16.5416973224
 As         3.1285317570        0.7210284834       13.7425180954
 As         8.9818024510       16.0321764072       18.9329965831
 As         8.5431853234        0.4424703879       19.6473549664
 As         7.1144571847        2.7309242389        3.4775559973
 As         3.0464238381        4.4357019596       17.8380706079
 As        10.7250232479       13.9519573407        5.5420103810
 As         3.0176872543       11.5961685704        9.1105527851
 As         7.6960471141        7.9686977398       17.1617222382
 As        13.4726728512        0.3997431737        8.3221681941
 As        17.3820732314       18.3412379197       15.3893664776
 As         0.4378935645       12.8790668486        4.8991050083
 As         1.6977298719        0.5849064057       18.5523292774
 As        15.1014167391       10.4873328467        8.4525095929
 As        11.0926801584       11.0523898656        0.6547378980
 As         9.5462473728       17.6473865601       10.5496581810
 As        14.1200773781       14.4586152799        4.1793021474
 As         4.6105054737       16.6105255985       11.6570412069
 As        15.7829439560        1.2012016596        9.6925202744
 As        18.6349494313       14.1469948510        5.7775035411
 As         4.6311169577       18.8455508318       11.3708302135
 As        19.7375887190       15.5562904330        1.4733165878
 As         8.2153708400       16.4455808342        5.1040537179
 As         3.6259332815        2.6329402523       14.8856764600
 As         2.6493225518        7.3512049763       13.6971769926
 As         2.6472583834        8.1100069556       10.6165856642
 As         0.4399923412        1.9940891810       16.5955280638
 As         1.9183859392       18.6119800851       10.0132587349
 As        14.2283730709        7.7463604488       14.6947831440
 As        14.0049900138       15.7120614205        2.1633209908
 As        16.9441672855        2.7745258107       13.6898090714
 As         6.9254352229        0.4844609075       17.0011661744
 As         3.8930498219       15.3040109010       13.5793003421
 As        13.0965426501        4.3771074117        4.4376693000
 As        17.1411168525        0.7466673736       19.0394994911
 Se        19.1934874314        6.9130204274       10.7317738030
 Se        17.9784380074        4.7034450620       15.6998880241
 Se        15.7952850522        0.7184611711       12.6654416439
 Se        17.7036743408       17.9690804749        4.9440375608
 Se         2.8630074663       12.9380747597       18.9660082122
 Se         9.2501438189       10.4732412137        7.5542452107
 Se        13.1495126729       11.6925333692        9.6640391280
 Se        17.1799431234        8.4898993779        7.6284499270
 Se         5.6915904493       10.4326052676        8.9569942205
 Se        10.6183417310       19.2188917116        1.7077249649
 Se        11.4379723993        7.3267125068        5.6082635067
 Se        10.1647969390       13.5130950051        8.1725124287
 Se        16.6404022607        9.5581582689        3.3093081722
 Se        19.1809039965        6.9262606413       14.1218763020
 Se         1.4449504982       11.0701704433        1.3038702750
 Se        15.6375390398        7.2390920485        9.8763045535
 Se        19.2349206915        7.1637845312        4.6946009063
 Se         6.4772175851        7.6031950882        2.7034302027
 Se        18.9411887624        4.2821920731        3.5099989447
 Se        12.1677753359       17.5522083773        5.5104570682
 Se         5.4851776575        0.6261748669        9.6604080003
 Se        16.9855970219       15.8808278781        2.4668365619
 Se        11.9275266668       17.2911858785        0.9435624121
 Se         1.0370912143        7.2671755652        8.3772564110
 Se         8.6274705772       11.6426168906       14.4239037931
 Se        10.4684471232        7.2920698803       13.0161912839
 Se         1.8515660338        8.7876193321        3.6493452965
 Se         0.9521603318        0.1700319024        5.7187705233
 Se        19.3432949689       12.1121115329        2.6691543293
 Se         3.6447016438        3.4331150975        1.9238063337
 Se        18.7737987007        1.6492563221        7.1527499739
 Se         5.1685152516        9.5086275795        0.2013643001
 Se        11.1229489884       15.1441677759       16.6355638922
 Se         8.5083034695        1.1859189302        1.4884010430
 Se        19.9223695996        3.4601588556       19.7165651461
 Se         2.4055454816       17.1158739021        7.6816713871
 Se         5.7914193561       15.6166578022        0.9127356418
 Se         6.4629806101       15.2332456297        8.3294695879
 Se        15.0651250242        4.7486183594        0.3378990223
 Se        18.3695999777        8.9178683887       18.0476124513
 Se        10.1625586899        2.8220870134       19.1283784480
 Se         4.7436017085        8.5414918509        6.1950233649
 Se        14.0363409521        6.4808450270       19.5560588059
 Se         1.3465695259        5.1995085610       19.5209242734
 Se        13.5798155089        7.8699555869        0.1588189006
 Se        11.7434965468       19.4011690507        8.7190054939
 Se        15.2150978081       16.3950349339        7.5486374094
 Se         0.7054309979       16.7999936921        0.6352789047
 Se         1.7955416227        2.9370981368       19.1659874505
 Se        13.0813189158       11.1397465237        3.4137258914
 Se        13.4635285405       11.9470362109        1.2808965132
 Se         3.8632046459       18.9464916714       16.7153947987
 Se        13.7530912766       12.8196466267       19.9268324976
 Se         4.9707154604       17.5346895962        3.1020454701
 Se         6.7939822875       14.1490486713       13.0473408733
 Se         2.1832391044        0.3030865166       10.0107921648
 Se         6.5149587519       10.8886117021       14.2769066662
 Se         8.9366331844        5.2926761312       12.1191689325
      96
 i =       10, time =        5.000, E =      -780.5435402691
 As         9.2564771901        6.5671612451        7.5960872077
 As        13.3724364374       19.0738773602       13.9727869614
 As         5.1907870399        8.5512614686       16.7718242370
 As        20.0031172078       12.4692919752       16.5464439357
 As         3.1378647292        0.7181283119       13.7450963136
 As         8.9869626618       16.0283882987       18.9380809506
 As         8.5444805534        0.4367774027       19.6399172493
 As         7.1072658397        2.7245680691        3.4718567350
 As         3.0408427968        4.4408844264       17.8323263692
 As        10.7232576313       13.9622543823        5.5415365189
 As         3.0192393582       11.6017919009        9.1074106925
 As         7.6955650423        7.9681430069       17.1668532503
 As        13.4796846291        0.4048205865        8.3161220482
 As        17.3780397421       18.3411124695       15.3939903393
 As         0.4358020908       12.8879924678        4.8989509271
 As         1.7062504394        0.5866354808       18.5506976265
 As        15.0990799628       10.4810730274        8.4594623161
 As        11.0929028757       11.0543412118        0.6578277739
 As         9.5496581738       17.6477506981       10.5480249688
 As        14.1166361903       14.4638812518        4.1810840042
 As         4.6138359746       16.6068693301       11.6672510364
 As        15.7764290881        1.2004181128        9.6910873584
 As        18.6432718840       14.1463920079        5.7736804282
 As         4.6194900971       18.8481934229       11.3708369936
 As        19.7197359409       15.5434179749        1.4816634790
 As         8.2229102671       16.4493843847        5.1110610795
 As         3.6279832719        2.6249579101       14.8874691180
 As         2.6496461811        7.3516296446       13.6954320920
 As         2.6384382042        8.1084647949       10.6191207319
 As         0.4354091595        1.9930882952       16.5951064507
 As         1.9126897225       18.5834051717       10.0169818816
 As        14.2248521671        7.7488397871       14.6991882890
 As        14.0154473667       15.7172273668        2.1697076672
 As        16.9461781866        2.7699794890       13.6865514600
 As         6.9335027404        0.4871548642       16.9989764915
 As         3.8897829317       15.2990894096       13.5786901531
 As        13.0878920439        4.3823993663        4.4357750465
 As        17.1399593020        0.7549313222       19.0408981805
 Se        19.1945526592        6.9119599246       10.7308273870
 Se        17.9720298046        4.7032518666       15.6983747903
 Se        15.7957776927        0.7194491652       12.6579444980
 Se        17.7012747128       17.9629108389        4.9407915950
 Se         2.8591011885       12.9348789567       18.9640497118
 Se         9.2517778980       10.4707755362        7.5538545591
 Se        13.1446912266       11.6831193798        9.6617211225
 Se        17.1770696464        8.4869146351        7.6254298520
 Se         5.6913124560       10.4343324564        8.9466137340
 Se        10.6218822836       19.2236799386        1.7070164633
 Se        11.4296423481        7.3234208968        5.6078415354
 Se        10.1681016221       13.5099133644        8.1708342804
 Se        16.6435171231        9.5579522617        3.3091267290
 Se        19.1868046129        6.9201532954       14.1270850670
 Se         1.4465455838       11.0803859797        1.3095857375
 Se        15.6400244594        7.2410231523        9.8753105779
 Se        19.2285921424        7.1615370924        4.6851075937
 Se         6.4724594906        7.5998584747        2.7014515821
 Se        18.9473813769        4.2833019565        3.5081694451
 Se        12.1761251583       17.5487242433        5.5168986579
 Se         5.4857207135        0.6232729375        9.6683250776
 Se        16.9869327190       15.8793541430        2.4661910693
 Se        11.9243867019       17.2951389793        0.9488742654
 Se         1.0393699562        7.2624206559        8.3810882983
 Se         8.6261826858       11.6435484659       14.4219436189
 Se        10.4715638183        7.2856682396       13.0187192224
 Se         1.8463081470        8.7916091113        3.6429594829
 Se         0.9503516807        0.1667027335        5.7263618366
 Se        19.3418209168       12.1145863942        2.6746597063
 Se         3.6510830927        3.4361528242        1.9307310193
 Se        18.7783343607        1.6486774759        7.1520419346
 Se         5.1738568911        9.5086752583        0.1910744115
 Se        11.1245320873       15.1489813778       16.6476984700
 Se         8.5068662604        1.1865621457        1.4969390096
 Se        19.9140145542        3.4523376582       19.7216673186
 Se         2.4024875515       17.1232700422        7.6782664690
 Se         5.7871728299       15.6155179005        0.9120659527
 Se         6.4602889381       15.2252995777        8.3269791924
 Se        15.0622515300        4.7392492829        0.3482318232
 Se        18.3673490490        8.9188445712       18.0401919500
 Se        10.1630898945        2.8186644586       19.1229213336
 Se         4.7447580216        8.5512264820        6.1923056319
 Se        14.0503561712        6.4325201670       19.5381519857
 Se         1.3390524019        5.2086483360       19.5169837334
 Se        13.5615921432        7.9163096435        0.1832194440
 Se        11.7353143010       19.4030689288        8.7240861704
 Se        15.2102297314       16.3935601078        7.5446515881
 Se         0.7156928688       16.8177332197        0.6290414346
 Se         1.8058706176        2.9367747979       19.1643507722
 Se        13.0856811107       11.1359188407        3.4186700815
 Se        13.4592211932       11.9237346954        1.3125243467
 Se         3.8629157215       18.9503888155       16.7144630601
 Se        13.7609241150       12.8475469286       19.8814351101
 Se         4.9745649818       17.5331674490        3.1003236228
 Se         6.7904338922       14.1493465288       13.0385627828
 Se         2.1862130684        0.3384504681       10.0054943831
 Se         6.5106058441       10.8895137181       14.2827949247
 Se         8.9407586770        5.2964366513       12.1190960636
      96
 i =       15, time =        7.500, E =      -780.9325021894
 As         9.2677062713        6.5656810547        7.5913833085
 As        13.3785978768       19.0728986596       13.9697234748
 As         5.1959236793        8.5472535021       16.7689941056
 As        20.0141082494       12.4611527763       16.5521468575
 As         3.1473889324        0.7156103914       13.7485083827
 As         8.9934551718       16.0243320075       18.9422578974
 As         8.5464652538        0.4297314539       19.6253916957
 As         7.0998691186        2.7176443270        3.4647459568
 As         3.0349681469        4.4465749808       17.8257460711
 As        10.7207975193       13.9730885660        5.5428187924
 As         3.0230128975       11.6060075542        9.1043063664
 As         7.6923161823        7.9682803870       17.1715131102
 As        13.4907867699        0.4118960194        8.3099612161
 As        17.3734038868       18.3416729120       15.3988517836
 As         0.4326978087       12.8971944358        4.8985705754
 As         1.7141631733        0.5876412567       18.5470645855
 As        15.0953072861       10.4752639661        8.4675675983
 As        11.0942278806       11.0563585436        0.6617853203
 As         9.5534103683       17.6483407473       10.5459835055
 As        14.1128674052       14.4698797788        4.1825770190
 As         4.6174260491       16.6012438900       11.6777620756
 As        15.7689846270        1.1990884279        9.6900632610
 As        18.6522735087       14.1454073662        5.7691927834
 As         4.6086545591       18.8533963607       11.3703551327
 As        19.6949237842       15.5217706512        1.4960280142
 As         8.2306761645       16.4525793260        5.1186719491
 As         3.6296314879        2.6165602939       14.8890169700
 As         2.6489478116        7.3521779028       13.6924863817
 As         2.6288776562        8.1066373716       10.6214830274
 As         0.4316587203        1.9913465388       16.5956802309
 As         1.9043487775       18.5377210793       10.0203618845
 As        14.2210118898        7.7511284848       14.7033854393
 As        14.0262780007       15.7223025605        2.1766027412
 As        16.9483122791        2.7653993932       13.6834853989
 As         6.9408836480        0.4894642657       16.9975243308
 As         3.8881209759       15.2943797499       13.5772477323
 As        13.0787720924        4.3886613049        4.4341447779
 As        17.1393863887        0.7631410931       19.0416339890
 Se        19.1961479800        6.9111808593       10.7294494218
 Se        17.9658123251        4.7031665175       15.6955105701
 Se        15.7959011465        0.7207644222       12.6504480573
 Se        17.6987257720       17.9559850002        4.9371798972
 Se         2.8541583798       12.9310568606       18.9621120916
 Se         9.2535563176       10.4686716315        7.5535763113
 Se        13.1416141466       11.6725951739        9.6581905230
 Se        17.1729937208        8.4835972302        7.6234952887
 Se         5.6888609483       10.4364881343        8.9356993758
 Se        10.6261849406       19.2272396357        1.7059612924
 Se        11.4203614576        7.3187821062        5.6084209077
 Se        10.1715107417       13.5062185486        8.1671534973
 Se        16.6468447673        9.5578529531        3.3090815271
 Se        19.1930086814        6.9131838746       14.1323508106
 Se         1.4474428638       11.0910178644        1.3161106254
 Se        15.6438323744        7.2439813905        9.8730594133
 Se        19.2226966808        7.1587349929        4.6746169307
 Se         6.4669758270        7.5972829786        2.6989189666
 Se        18.9537714129        4.2858941317        3.5068985443
 Se        12.1844148978       17.5444248847        5.5236314576
 Se         5.4858354556        0.6189088011        9.6773615098
 Se        16.9880897238       15.8783895755        2.4663657403
 Se        11.9205544620       17.2996806960        0.9544808520
 Se         1.0415438126        7.2579393240        8.3871846780
 Se         8.6244507689       11.6446422253       14.4199422037
 Se        10.4735443899        7.2775897621       13.0206138850
 Se         1.8403271794        8.7955250537        3.6366313466
 Se         0.9468666277        0.1638482039        5.7350563586
 Se        19.3415249524       12.1164688776        2.6800720195
 Se         3.6578320117        3.4390907896        1.9374671273
 Se        18.7842311457        1.6470616146        7.1504187077
 Se         5.1795820728        9.5079333575        0.1812124073
 Se        11.1248155386       15.1541963190       16.6611802069
 Se         8.5046113754        1.1903950544        1.5123699038
 Se        19.8987291771        3.4447702264       19.7281201604
 Se         2.3992676879       17.1313733309        7.6752436673
 Se         5.7826239214       15.6155965104        0.9125287317
 Se         6.4581330840       15.2178096482        8.3241068084
 Se        15.0605609629        4.7279489048        0.3601204888
 Se        18.3653651139        8.9203224266       18.0324352544
 Se        10.1627130961        2.8139909684       19.1175908546
 Se         4.7460386144        8.5612734726        6.1896216252
 Se        14.0704991712        6.3635964024       19.5083705347
 Se         1.3322943903        5.2224311282       19.5135493884
 Se        13.5360679526        7.9852313470        0.2180639605
 Se        11.7238594892       19.4029719318        8.7300006118
 Se        15.2051695422       16.3924482449        7.5397609758
 Se         0.7322617662       16.8437338037        0.6173259921
 Se         1.8228609117        2.9318106742       19.1624185572
 Se        13.0902694064       11.1320155534        3.4254563852
 Se        13.4489720204       11.8877378036        1.3590196002
 Se         3.8631450781       18.9552069542       16.7138587522
 Se        13.7736806098       12.8880903589       19.8185134238
 Se         4.9794269323       17.5302362025        3.0973636666
 Se         6.7855698068       14.1498749301       13.0301045667
 Se         2.1912640674        0.3897868363        9.9996696926
 Se         6.5065053996       10.8904516262       14.2886741322
 Se         8.9464221461        5.3020750960       12.1197960652
      96
 i =       10, time =        5.000, E =      -780.5435402690
 As         9.2564771900        6.5671612451        7.5960872077
 As        13.3724364374       19.0738773602       13.9727869614
 As         5.1907870398        8.5512614686       16.7718242371
 As        20.0031172078       12.4692919752       16.5464439357
 As         3.1378647292        0.7181283119       13.7450963136
 As         8.9869626618       16.0283882987       18.9380809506
 As         8.5444805534        0.4367774027       19.6399172493
 As         7.1072658396        2.7245680691        3.4718567350
 As         3.0408427968        4.4408844264       17.8323263692
 As        10.7232576313       13.9622543823        5.5415365189
 As         3.0192393582       11.6017919009        9.1074106925
 As         7.6955650423        7.9681430070       17.1668532503
 As        13.4796846292        0.4048205865        8.3161220482
 As        17.3780397421       18.3411124694       15.3939903393
 As         0.4358020907       12.8879924678        4.8989509271
 As         1.7062504394        0.5866354808       18.5506976264
 As        15.0990799629       10.4810730274        8.4594623161
 As        11.0929028757       11.0543412118        0.6578277739
 As         9.5496581738       17.6477506981       10.5480249688
 As        14.1166361902       14.4638812518        4.1810840042
 As         4.6138359746       16.6068693301       11.6672510364
 As        15.7764290882        1.2004181128        9.6910873584
 As        18.6432718841       14.1463920079        5.7736804282
 As         4.6194900971       18.8481934229       11.3708369936
 As        19.7197359410       15.5434179749        1.4816634790
 As         8.2229102671       16.4493843847        5.1110610795
 As         3.6279832719        2.6249579101       14.8874691180
 As         2.6496461811        7.3516296446       13.6954320920
 As         2.6384382042        8.1084647949       10.6191207319
 As         0.4354091595        1.9930882952       16.5951064507
 As         1.9126897225       18.5834051717       10.0169818816
 As        14.2248521671        7.7488397871       14.6991882890
 As        14.0154473667       15.7172273668        2.1697076671
 As        16.9461781866        2.7699794889       13.6865514600
 As         6.9335027404        0.4871548642       16.9989764915
 As         3.8897829317       15.2990894097       13.5786901530
 As        13.0878920439        4.3823993663        4.4357750465
 As        17.1399593020        0.7549313222       19.0408981805
 Se        19.1945526592        6.9119599246       10.7308273870
 Se        17.9720298046        4.7032518666       15.6983747903
 Se        15.7957776927        0.7194491652       12.6579444980
 Se        17.7012747128       17.9629108389        4.9407915950
 Se         2.8591011885       12.9348789567       18.9640497118
 Se         9.2517778980       10.4707755362        7.5538545591
 Se        13.1446912266       11.6831193798        9.6617211225
 Se        17.1770696464        8.4869146351        7.6254298520
 Se         5.6913124560       10.4343324564        8.9466137340
 Se        10.6218822836       19.2236799386        1.7070164633
 Se        11.4296423481        7.3234208968        5.6078415354
 Se        10.1681016221       13.5099133644        8.1708342804
 Se        16.6435171231        9.5579522617        3.3091267290
 Se        19.1868046129        6.9201532954       14.1270850670
 Se         1.4465455838       11.0803859797        1.3095857375
 Se        15.6400244593        7.2410231523        9.8753105779
 Se        19.2285921424        7.1615370924        4.6851075937
 Se         6.4724594906        7.5998584747        2.7014515821
 Se        18.9473813769        4.2833019565        3.5081694451
 Se        12.1761251583       17.5487242433        5.5168986579
 Se         5.4857207135        0.6232729375        9.6683250776
 Se        16.9869327190       15.8793541430        2.4661910693
 Se        11.9243867019       17.2951389793        0.9488742654
 Se         1.0393699562        7.2624206559        8.3810882984
 Se         8.6261826858       11.6435484660       14.4219436189
 Se        10.4715638183        7.2856682396       13.0187192224
 Se         1.8463081470        8.7916091113        3.6429594829
 Se         0.9503516807        0.1667027335        5.7263618366
 Se        19.3418209168       12.1145863942        2.6746597063
 Se         3.6510830927        3.4361528241        1.9307310193
 Se        18.7783343607        1.6486774759        7.1520419346
 Se         5.1738568911        9.5086752583        0.1910744115
 Se        11.1245320873       15.1489813778       16.6476984700
 Se         8.5068662604        1.1865621457        1.4969390096