#     Step Nr.          Time[fs]        Kin.[a.u.]          Temp[K]            Pot.[a.u.]        Cons Qty[a.u.]        UsedTime[s]
         0            0.000000         0.135381356       300.000000000      -779.965873397      -779.830492041         0.000000000
         5            2.500000         0.288068437       638.348835893      -780.136978630      -779.847839148      1725.637018000
         9            4.500000         0.604159695      1338.795193842      -780.456576825      -779.848445704      1132.141209000
        10            5.000000         0.691833356      1533.076733016      -780.543540269      -779.848551279      1070.911104000
         1            0.500000         0.134258182       297.511088464      -779.980447017      -779.846411484      3605.414560000
         6            3.000000         0.358647108       794.748520772      -780.207737361      -779.848001756      1801.953640000
        11            5.500000         0.776159183      1719.939598581      -780.629082977      -779.848632188      1162.162081000
         2            1.000000         0.149659449       331.639718647      -779.997270595      -779.847456639      1845.512841000
         7            3.500000         0.436669777       967.643825935      -780.286386683      -779.848170813      1752.799410000
        12            6.000000         0.858539674      1902.491673162      -780.711655704      -779.848684625      1188.749500000
         8            4.000000         0.518439875      1148.843290493      -780.370146021      -779.848319392      1104.674152000
        13            6.500000         0.936788798      2075.888792665      -780.790243550      -779.848714435      1204.904722000
         3            1.500000         0.181559711       402.329500998      -780.029531113      -779.847553401      1767.449326000
        14            7.000000         1.010527513      2239.291014667      -780.864002979      -779.848725480       682.959335000
         9            4.500000         0.604159695      1338.795193508      -780.456576825      -779.848445705      1141.702559000
         4            2.000000         0.228514788       506.380187141      -780.076756927      -779.847680940      1746.413092000
        15            7.500000         1.079235726      2391.545834100      -780.932502189      -779.848718861      1181.208647000
        10            5.000000         0.691833356      1533.076732644      -780.543540269      -779.848551279      1086.150430000
        16            8.000000         1.142633097      2532.032026682      -780.995525940      -779.848698554       597.200648000
        11            5.500000         0.776159183      1719.939598157      -780.629082977      -779.848632189      1161.954279000
        17            8.500000         1.202007774      2663.604082535      -781.053127697      -779.848668213      1069.409894000
         5            2.500000         0.288068437       638.348835958      -780.136978630      -779.847839147      1800.180401000
        18            9.000000         1.253094263      2776.809823219      -781.105390862      -779.848636232       619.238838000
        12            6.000000         0.858539674      1902.491672712      -780.711655704      -779.848684625      1167.485272000
        19            9.500000         1.301616528      2884.333338754      -781.152605780      -779.848597366       720.415320000
         6            3.000000         0.358647108       794.748520911      -780.207737361      -779.848001756      1791.309716000
        20           10.000000         1.345083555      2980.654639152      -781.195126150      -779.848556197       794.779280000
        13            6.500000         0.936788798      2075.888792243      -780.790243550      -779.848714435      1237.927041000
        14            7.000000         1.010527513      2239.291014295      -780.864002978      -779.848725480       700.604596000
        21           10.500000         1.383060568      3064.810272050      -781.233325719      -779.848517541       768.375019000
         7            3.500000         0.436669777       967.643826128      -780.286386683      -779.848170813      1662.950923000
        22           11.000000         1.415712576      3137.165897251      -781.267592261      -779.848482067       818.224288000
        15            7.500000         1.079235726      2391.545833781      -780.932502189      -779.848718861      1169.945456000
        16            8.000000         1.142633097      2532.032026446      -780.995525940      -779.848698554       572.168112000
         8            4.000000         0.518439875      1148.843290703      -780.370146021      -779.848319392      1049.727481000
        23           11.500000         1.444167472      3200.220877697      -781.298352021      -779.848451438       891.610930000
        24           12.000000         1.470575027      3258.739026651      -781.326017562      -779.848430063       918.700105000
        17            8.500000         1.202007774      2663.604082273      -781.053127697      -779.848668213      1071.175415000
         9            4.500000         0.604159695      1338.795193733      -780.456576825      -779.848445704      1148.445074000
        18            9.000000         1.253094263      2776.809822858      -781.105390862      -779.848636232       569.911014000
        25           12.500000         1.493869283      3310.358224171      -781.350998343      -779.848424601      1078.923911000
        10            5.000000         0.691833356      1533.076732894      -780.543540269      -779.848551279      1029.884901000
        19            9.500000         1.301616528      2884.333338355      -781.152605780      -779.848597366       677.154533000
        20           10.000000         1.345083555      2980.654638618      -781.195126150      -779.848556197       794.132907000
        11            5.500000         0.776159183      1719.939598443      -780.629082977      -779.848632188      1071.886442000
        26           13.000000         1.513920798      3354.791628525      -781.373672288      -779.848458320      1647.190549000
        21           10.500000         1.383060567      3064.810271369      -781.233325719      -779.848517541       736.243439000
        12            6.000000         0.858539674      1902.491673016      -780.711655704      -779.848684625      1073.615538000
        22           11.000000         1.415712576      3137.165896443      -781.267592261      -779.848482067       776.497214000
        27           13.500000         1.534045547      3399.387315456      -781.394373228      -779.848508217      1601.342857000
        23           11.500000         1.444167472      3200.220876757      -781.298352020      -779.848451438       867.414820000
        13            6.500000         0.936788798      2075.888792528      -780.790243550      -779.848714435      1177.764767000
        14            7.000000         1.010527513      2239.291014546      -780.864002979      -779.848725480       671.410909000
        24           12.000000         1.470575026      3258.739025684      -781.326017562      -779.848430064       858.176998000
        28           14.000000         1.550888318      3436.710263913      -781.413295089      -779.848479992      1709.054819000
        15            7.500000         1.079235726      2391.545833996      -780.932502189      -779.848718861      1160.857383000
        25           12.500000         1.493869283      3310.358223312      -781.350998344      -779.848424602      1148.207078000
        16            8.000000         1.142633097      2532.032026605      -780.995525940      -779.848698554       577.624284000
        29           14.500000         1.566153067      3470.536374617      -781.430778018      -779.848454565      1727.924297000
        17            8.500000         1.202007774      2663.604082450      -781.053127697      -779.848668213      1030.194742000
        26           13.000000         1.513920798      3354.791627819      -781.373672288      -779.848458321      1694.067187000
        18            9.000000         1.253094263      2776.809823102      -781.105390862      -779.848636232       595.326380000
        30           15.000000         1.581141227      3503.749573641      -781.447085332      -779.848443347      1396.700016000
        19            9.500000         1.301616528      2884.333338625      -781.152605780      -779.848597366       687.662145000
        27           13.500000         1.534045547      3399.387314884      -781.394373228      -779.848508217      1585.946036000
        20           10.000000         1.345083555      2980.654638979      -781.195126150      -779.848556197       770.434972000
        21           10.500000         1.383060568      3064.810271829      -781.233325719      -779.848517541       736.787151000
        31           15.500000         1.596593943      3537.992212607      -781.462417931      -779.848435809      1688.909232000
        28           14.000000         1.550888318      3436.710263375      -781.413295089      -779.848479992      1684.331972000
        22           11.000000         1.415712576      3137.165896989      -781.267592261      -779.848482067       782.822078000
        23           11.500000         1.444167472      3200.220877393      -781.298352021      -779.848451438       869.060087000
        32           16.000000         1.608746105      3564.920946762      -781.476966921      -779.848426344      1675.785767000
        29           14.500000         1.566153067      3470.536373984      -781.430778018      -779.848454565      1665.896650000
        24           12.000000         1.470575027      3258.739026338      -781.326017562      -779.848430063       901.897652000
        33           16.500000         1.620026991      3589.918965687      -781.490899526      -779.848410426      1686.543869000
        25           12.500000         1.493869283      3310.358223893      -781.350998343      -779.848424601      1051.186740000
        30           15.000000         1.581141227      3503.749573104      -781.447085332      -779.848443347      1340.562186000
        34           17.000000         1.630857878      3613.919805242      -781.504363797      -779.848393044      1088.464202000
        26           13.000000         1.513920798      3354.791628298      -781.373672288      -779.848458320      1653.216680000
        31           15.500000         1.596593943      3537.992212125      -781.462417931      -779.848435809      1679.827002000
        35           17.500000         1.643037967      3640.910423896      -781.517506245      -779.848383888      1735.778571000
        27           13.500000         1.534045547      3399.387315273      -781.394373228      -779.848508217      1614.354377000
        32           16.000000         1.608746105      3564.920946067      -781.476966921      -779.848426344      1689.696383000
        36           18.000000         1.654036423      3665.282590248      -781.530434271      -779.848373503       984.567705000
        28           14.000000         1.550888318      3436.710263741      -781.413295089      -779.848479992      1658.166325000
        33           16.500000         1.620026990      3589.918964897      -781.490899526      -779.848410426      1732.312610000
        37           18.500000         1.663255491      3685.711698316      -781.543253736      -779.848369507      1671.885676000
        34           17.000000         1.630857878      3613.919804563      -781.504363797      -779.848393044      1076.149099000
        29           14.500000         1.566153067      3470.536374413      -781.430778018      -779.848454565      1688.386121000
        38           19.000000         1.674228841      3710.028229746      -781.556066403      -779.848369930      1644.687336000
        30           15.000000         1.581141227      3503.749573468      -781.447085332      -779.848443347      1297.141911000
        35           17.500000         1.643037966      3640.910423323      -781.517506245      -779.848383888      1638.272093000
        39           19.500000         1.687550158      3739.547767046      -781.568949109      -779.848365846      1070.653877000
        36           18.000000         1.654036423      3665.282589720      -781.530434271      -779.848373503      1008.446988000
        31           15.500000         1.596593943      3537.992212452      -781.462417931      -779.848435809      1657.944496000
        40           20.000000         1.698541088      3763.903257298      -781.581968058      -779.848355308      1697.132356000
        37           18.500000         1.663255491      3685.711697622      -781.543253735      -779.848369507      1608.968397000
        41           20.500000         1.711585622      3792.809453655      -781.595187769      -779.848348966       950.957929000
        32           16.000000         1.608746105      3564.920946538      -781.476966921      -779.848426344      1665.792401000
        42           21.000000         1.724749772      3821.980715741      -781.608661100      -779.848344540      1491.330124000
        38           19.000000         1.674228840      3710.028228599      -781.556066403      -779.848369931      1706.711916000
        33           16.500000         1.620026991      3589.918965431      -781.490899526      -779.848410426      1677.449297000
        43           21.500000         1.737198269      3849.566116323      -781.622426521      -779.848343019       809.024018000
        39           19.500000         1.687550157      3739.547765439      -781.568949109      -779.848365847      1081.075630000
        34           17.000000         1.630857878      3613.919805023      -781.504363797      -779.848393044      1083.229929000
        44           22.000000         1.750233698      3878.452138881      -781.636516906      -779.848340669      1398.867504000
        40           20.000000         1.698541088      3763.903255431      -781.581968058      -779.848355309      1709.859455000
        45           22.500000         1.761465183      3903.340688059      -781.650967524      -779.848339299       849.682562000
        35           17.500000         1.643037967      3640.910423712      -781.517506245      -779.848383888      1681.138024000
        41           20.500000         1.711585621      3792.809452396      -781.595187769      -779.848348966       955.776696000
        46           23.000000         1.777785399      3939.505672119      -781.665795528      -779.848335406      1372.331578000
        36           18.000000         1.654036423      3665.282590079      -781.530434271      -779.848373503      1039.075024000
        47           23.500000         1.790150039      3966.905251888      -781.681026563      -779.848336907       629.354949000
        42           21.000000         1.724749772      3821.980715557      -781.608661101      -779.848344540      1469.415220000
        43           21.500000         1.737198269      3849.566116459      -781.622426521      -779.848343019       797.708961000
        48           24.000000         1.805292386      4000.460122277      -781.696656616      -779.848333441      1112.957907000
        37           18.500000         1.663255491      3685.711698091      -781.543253736      -779.848369507      1699.472890000
        49           24.500000         1.821623443      4036.649132978      -781.712703720      -779.848333626      1117.393638000
        44           22.000000         1.750233698      3878.452138715      -781.636516906      -779.848340669      1410.760424000
        38           19.000000         1.674228841      3710.028229373      -781.556066403      -779.848369930      1692.369364000
        50           25.000000         1.837279934      4071.343327527      -781.729179392      -779.848335354       675.543970000
        45           22.500000         1.761465183      3903.340687577      -781.650967524      -779.848339299       845.444592000
        39           19.500000         1.687550157      3739.547766523      -781.568949109      -779.848365846      1103.738878000
        51           25.500000         1.852496861      4105.063467420      -781.746056052      -779.848333232      1182.310027000
        46           23.000000         1.777785398      3939.505671717      -781.665795528      -779.848335406      1356.692878000
        52           26.000000         1.868768911      4141.121718148      -781.763339259      -779.848334118       646.902337000
        53           26.500000         1.885202559      4177.538065692      -781.781022740      -779.848334500       581.128620000
        47           23.500000         1.790150039      3966.905251744      -781.681026563      -779.848336907       645.128400000
        40           20.000000         1.698541088      3763.903256691      -781.581968058      -779.848355308      1694.346528000
        54           27.000000         1.902846743      4216.636913505      -781.799090200      -779.848332989       730.532042000
        48           24.000000         1.805292386      4000.460122253      -781.696656616      -779.848333441      1157.530513000
        41           20.500000         1.711585622      3792.809453250      -781.595187769      -779.848348966      1000.760256000
        55           27.500000         1.918486450      4251.293917717      -781.817524814      -779.848334393       772.993307000
        56           28.000000         1.935664331      4289.359457564      -781.836303312      -779.848339450       725.929164000
        49           24.500000         1.821623443      4036.649133077      -781.712703721      -779.848333626      1138.603045000
        42           21.000000         1.724749772      3821.980715689      -781.608661100      -779.848344540      1496.864057000
        57           28.500000         1.953875463      4329.714640376      -781.855409777      -779.848343717       735.148520000
        50           25.000000         1.837279934      4071.343327678      -781.729179392      -779.848335354       675.185316000
        43           21.500000         1.737198269      3849.566116375      -781.622426521      -779.848343019       826.635470000
        58           29.000000         1.973271948      4372.696522533      -781.874814061      -779.848343994       819.109118000
        51           25.500000         1.852496861      4105.063467482      -781.746056052      -779.848333232      1154.678566000
        59           29.500000         1.992850369      4416.081569524      -781.894498450      -779.848343160       752.044225000
        52           26.000000         1.868768911      4141.121717895      -781.763339259      -779.848334118       632.045366000
        44           22.000000         1.750233698      3878.452138834      -781.636516906      -779.848340669      1374.566455000
        60           30.000000         2.010993014      4456.284989322      -781.914438223      -779.848345609       681.673584000
        53           26.500000         1.885202559      4177.538064954      -781.781022739      -779.848334500       569.584946000
        61           30.500000         2.030860383      4500.310333482      -781.934591335      -779.848348836       491.571307000
        45           22.500000         1.761465183      3903.340687910      -781.650967524      -779.848339299       858.547606000
        54           27.000000         1.902846742      4216.636912300      -781.799090200      -779.848332989       699.699571000
        62           31.000000         2.049727365      4542.118855372      -781.954920993      -779.848348803       647.431892000
        55           27.500000         1.918486449      4251.293916441      -781.817524814      -779.848334394       725.717208000
        63           31.500000         2.070977765      4589.208944006      -781.975400040      -779.848349166       588.923138000
        46           23.000000         1.777785399      3939.505671996      -781.665795528      -779.848335406      1383.158979000
        56           28.000000         1.935664331      4289.359456717      -781.836303313      -779.848339451       712.623009000
        64           32.000000         2.091164912      4633.942903213      -781.995997055      -779.848353907       649.753984000
        47           23.500000         1.790150039      3966.905251849      -781.681026563      -779.848336907       680.441385000
        65           32.500000         2.111532845      4679.077479207      -782.016675692      -779.848360352       453.641996000
        57           28.500000         1.953875463      4329.714640165      -781.855409777      -779.848343717       738.126951000
        66           33.000000         2.130608819      4721.349120429      -782.037390440      -779.848363342       500.478095000
        58           29.000000         1.973271948      4372.696522676      -781.874814061      -779.848343994       826.786854000
        48           24.000000         1.805292386      4000.460122277      -781.696656616      -779.848333441      1144.025483000
        67           33.500000         2.150170444      4764.696947299      -782.058094910      -779.848363423       671.707490000
        68           34.000000         2.171715529      4812.440046403      -782.078762450      -779.848365092       528.673065000
        59           29.500000         1.992850369      4416.081569399      -781.894498450      -779.848343160       764.163948000
        69           34.500000         2.191209383      4855.637694651      -782.099354817      -779.848369223       451.028926000
        49           24.500000         1.821623443      4036.649133018      -781.712703720      -779.848333626      1154.488827000
        60           30.000000         2.010993014      4456.284988737      -781.914438223      -779.848345609       719.252229000
        70           35.000000         2.211545509      4900.701786528      -782.119824313      -779.848373912       476.146424000
        50           25.000000         1.837279934      4071.343327585      -781.729179392      -779.848335354       708.105344000
        61           30.500000         2.030860383      4500.310332609      -781.934591335      -779.848348836       501.581592000
        71           35.500000         2.229658795      4940.840147809      -782.140129831      -779.848378370       435.374956000
        72           36.000000         2.248922375      4983.527515939      -782.160220052      -779.848383213       470.862793000
        62           31.000000         2.049727364      4542.118854657      -781.954920992      -779.848348803       691.510969000
        73           36.500000         2.269562317      5029.264852417      -782.180058540      -779.848388377       369.301505000
        51           25.500000         1.852496861      4105.063467449      -781.746056052      -779.848333232      1173.004143000
        74           37.000000         2.286604492      5067.029673189      -782.199595824      -779.848392473       329.809870000
        63           31.500000         2.070977765      4589.208943903      -781.975400040      -779.848349166       589.563174000
        75           37.500000         2.303537238      5104.552000776      -782.218782386      -779.848394926       316.989689000
        52           26.000000         1.868768911      4141.121718074      -781.763339259      -779.848334118       613.529193000
        64           32.000000         2.091164912      4633.942903736      -781.995997055      -779.848353907       642.901057000
        76           38.000000         2.322073246      5145.627098480      -782.237581597      -779.848397763       367.653826000
        77           38.500000         2.339198721      5183.576508012      -782.255937880      -779.848403100       322.648018000
        65           32.500000         2.111532846      4679.077479933      -782.016675693      -779.848360352       457.488295000
        53           26.500000         1.885202559      4177.538065459      -781.781022740      -779.848334500       617.129213000
        78           39.000000         2.357557541      5224.258965270      -782.273808309      -779.848411039       226.463844000
        79           39.500000         2.373655517      5259.931475229      -782.291141709      -779.848420063       228.246390000
        66           33.000000         2.130608819      4721.349120771      -782.037390440      -779.848363341       516.063211000
        80           40.000000         2.389288058      5294.572598966      -782.307881860      -779.848430306       387.129959000
        54           27.000000         1.902846742      4216.636913120      -781.799090200      -779.848332989       738.690178000
        67           33.500000         2.150170444      4764.696946809      -782.058094910      -779.848363423       675.821579000
        81           40.500000         2.404766787      5328.872880477      -782.323971395      -779.848444710       543.846546000
        55           27.500000         1.918486450      4251.293917309      -781.817524814      -779.848334394       760.631756000
        82           41.000000         2.417536235      5357.169498468      -782.339358745      -779.848461355       339.989799000
        68           34.000000         2.171715529      4812.440045288      -782.078762449      -779.848365092       527.896206000
        83           41.500000         2.429908200      5384.585306331      -782.353980907      -779.848477414       557.908091000
        69           34.500000         2.191209383      4855.637694795      -782.099354818      -779.848369224       448.497337000
        56           28.000000         1.935664331      4289.359457296      -781.836303312      -779.848339450       721.801878000
        70           35.000000         2.211545510      4900.701788502      -782.119824314      -779.848373912       467.040796000
        57           28.500000         1.953875463      4329.714640316      -781.855409777      -779.848343717       729.612878000
        71           35.500000         2.229658797      4940.840150575      -782.140129832      -779.848378370       433.336343000
        84           42.000000         2.441331545      5409.899010604      -782.367786342      -779.848503944      1010.701330000
        72           36.000000         2.248922376      4983.527519567      -782.160220052      -779.848383212       464.662326000
        58           29.000000         1.973271948      4372.696522589      -781.874814061      -779.848343994       838.715809000
        73           36.500000         2.269562319      5029.264856751      -782.180058540      -779.848388374       366.229076000
        74           37.000000         2.286604494      5067.029677841      -782.199595823      -779.848392471       321.440706000
        59           29.500000         1.992850369      4416.081569492      -781.894498450      -779.848343160       737.979888000
        75           37.500000         2.303537240      5104.552005455      -782.218782386      -779.848394924       318.747966000
        85           42.500000         2.454510787      5439.103716679      -782.380757468      -779.848570558      1682.756118000
        76           38.000000         2.322073248      5145.627103062      -782.237581597      -779.848397762       345.900100000
        77           38.500000         2.339198723      5183.576512675      -782.255937881      -779.848403099       298.150697000
        60           30.000000         2.010993014      4456.284989139      -781.914438223      -779.848345609       696.141281000
        78           39.000000         2.357557544      5224.258970214      -782.273808309      -779.848411037       234.225906000
        79           39.500000         2.373655520      5259.931480669      -782.291141710      -779.848420061       213.644688000
        61           30.500000         2.030860383      4500.310333206      -781.934591335      -779.848348836       480.192632000
        80           40.000000         2.389288061      5294.572605063      -782.307881860      -779.848430304       347.767468000
        62           31.000000         2.049727365      4542.118855147      -781.954920993      -779.848348803       642.605379000
        86           43.000000         2.464920443      5462.171122792      -782.392809533      -779.848657609      1648.400721000
        81           40.500000         2.404766790      5328.872887228      -782.323971395      -779.848444708       530.390941000
        82           41.000000         2.417536239      5357.169505559      -782.339358746      -779.848461352       360.906039000
        63           31.500000         2.070977765      4589.208943981      -781.975400040      -779.848349166       622.380331000
        83           41.500000         2.429908203      5384.585313437      -782.353980908      -779.848477411       580.059148000
        64           32.000000         2.091164912      4633.942903393      -781.995997055      -779.848353907       675.406837000
        65           32.500000         2.111532845      4679.077479453      -782.016675692      -779.848360352       444.254910000
        87           43.500000         2.474889249      5484.261622661      -782.403787023      -779.848663005      1768.083178000
        84           42.000000         2.441331548      5409.899017833      -782.367786343      -779.848503942       998.378400000
        66           33.000000         2.130608819      4721.349120549      -782.037390440      -779.848363341       496.067380000
        67           33.500000         2.150170444      4764.696947147      -782.058094910      -779.848363423       725.389350000
        68           34.000000         2.171715529      4812.440046047      -782.078762450      -779.848365092       625.921778000