#     Step Nr.          Time[fs]        Kin.[a.u.]          Temp[K]            Pot.[a.u.]        Cons Qty[a.u.]        UsedTime[s]
         0            0.000000         0.005700268       300.000000000       -40.859076774       -40.853376506         0.000000000
         1            0.500000         0.005624993       296.038366796       -40.859026819       -40.853376499        60.054564000
         2            1.000000         0.005532842       291.188545989       -40.858981315       -40.853376494         6.550502000
         3            1.500000         0.005394662       283.916264186       -40.858940690       -40.853376484         6.555578000
         4            2.000000         0.005319880       279.980533378       -40.858904700       -40.853376478         5.286526000
         5            2.500000         0.005306171       279.259047627       -40.858873617       -40.853376474         6.552298000
         6            3.000000         0.005365088       282.359795168       -40.858847114       -40.853376470         5.312035000
         7            3.500000         0.005202202       273.787248043       -40.858825508       -40.853376467         6.561720000
         8            4.000000         0.005117543       269.331709348       -40.858809011       -40.853376460         5.333475000
         9            4.500000         0.005137460       270.379923260       -40.858797415       -40.853376454         6.716536000
        10            5.000000         0.005160920       271.614628144       -40.858790969       -40.853376451         6.560593000
        11            5.500000         0.005190148       273.152859622       -40.858789601       -40.853376448         6.590021000
        12            6.000000         0.005150065       271.043326683       -40.858793359       -40.853376447         5.266234000
        13            6.500000         0.005280484       277.907181114       -40.858802241       -40.853376447         6.586985000
        14            7.000000         0.005399075       284.148504993       -40.858816502       -40.853376448         6.554027000
        15            7.500000         0.005407971       284.616690081       -40.858835820       -40.853376449         6.531594000
        16            8.000000         0.005494307       289.160487693       -40.858860407       -40.853376448         6.598967000
        17            8.500000         0.005469438       287.851633173       -40.858890033       -40.853376449         5.278803000
        18            9.000000         0.005470924       287.929853373       -40.858924356       -40.853376450         6.571244000
        19            9.500000         0.005495436       289.219916740       -40.858963934       -40.853376453         6.552751000
        20           10.000000         0.005559483       292.590649952       -40.859008696       -40.853376459         5.287979000
        21           10.500000         0.005625897       296.085949138       -40.859058545       -40.853376463         6.584086000
        22           11.000000         0.005753865       302.820781726       -40.859113507       -40.853376468         5.291416000
        23           11.500000         0.005717167       300.889387291       -40.859173248       -40.853376473         6.573776000
        24           12.000000         0.005826362       306.636230560       -40.859237577       -40.853376478         5.281940000
        25           12.500000         0.005896955       310.351465165       -40.859306629       -40.853376484         6.544162000
        26           13.000000         0.005997669       315.651972525       -40.859380688       -40.853376492         5.276373000
        27           13.500000         0.006001693       315.863759034       -40.859458215       -40.853376500         6.569660000
        28           14.000000         0.006092036       320.618402896       -40.859540857       -40.853376509         6.627299000
        29           14.500000         0.006028750       317.287722125       -40.859627189       -40.853376517         6.793616000
        30           15.000000         0.006079399       319.953339429       -40.859716799       -40.853376523         5.447548000
        31           15.500000         0.006207612       326.701107538       -40.859810964       -40.853376531         6.613448000
        32           16.000000         0.006313228       332.259541814       -40.859908526       -40.853376539         5.305168000
        33           16.500000         0.006492555       341.697367382       -40.860011199       -40.853376549         6.556696000
        34           17.000000         0.006725536       353.958935317       -40.860118727       -40.853376561         5.290942000
        35           17.500000         0.006840108       359.988774158       -40.860229885       -40.853376572         5.283994000
        36           18.000000         0.007057728       371.441926941       -40.860345733       -40.853376582         6.565559000
        37           18.500000         0.007117519       374.588678546       -40.860464139       -40.853376591         5.303204000
        38           19.000000         0.007333792       385.970945537       -40.860585551       -40.853376600         5.389249000
        39           19.500000         0.007288131       383.567833569       -40.860709923       -40.853376613         6.560659000
        40           20.000000         0.007435665       391.332404554       -40.860836122       -40.853376621         5.359382000
        41           20.500000         0.007596125       399.777258885       -40.860965597       -40.853376629         6.779633000
        42           21.000000         0.007751977       407.979628705       -40.861097447       -40.853376642         5.351335000
        43           21.500000         0.007937163       417.725796816       -40.861232705       -40.853376656         7.201421000
        44           22.000000         0.008075963       425.030723630       -40.861370380       -40.853376667         5.402909000
        45           22.500000         0.008276270       435.572706983       -40.861510144       -40.853376678         5.349193000
        46           23.000000         0.008424053       443.350406560       -40.861651633       -40.853376691         5.415174000
        47           23.500000         0.008600007       452.610704081       -40.861794999       -40.853376706         4.018581000
        48           24.000000         0.008699699       457.857378887       -40.861940203       -40.853376721         6.608384000
        49           24.500000         0.008902075       468.508257847       -40.862086476       -40.853376729         5.335883000
        50           25.000000         0.009025804       475.020036511       -40.862234544       -40.853376738         5.323410000
        51           25.500000         0.009077669       477.749617813       -40.862383348       -40.853376752         5.270521000
        52           26.000000         0.009283711       488.593403259       -40.862533152       -40.853376764         5.295192000
        53           26.500000         0.009542370       502.206436376       -40.862684158       -40.853376776         5.363068000
        54           27.000000         0.009583328       504.362003323       -40.862834975       -40.853376786         5.302555000
        55           27.500000         0.009622825       506.440691722       -40.862986773       -40.853376796         5.297772000
        56           28.000000         0.009856863       518.757904501       -40.863137889       -40.853376805         5.297370000
        57           28.500000         0.009880167       519.984374973       -40.863289446       -40.853376815         5.318916000
        58           29.000000         0.010029289       527.832511056       -40.863441242       -40.853376826         5.291592000
        59           29.500000         0.010191397       536.364131069       -40.863593108       -40.853376836         5.305364000
        60           30.000000         0.010094612       531.270417257       -40.863743992       -40.853376840         5.304647000
        61           30.500000         0.010208881       537.284284718       -40.863893778       -40.853376843         5.297423000
        62           31.000000         0.010355723       545.012456052       -40.864043720       -40.853376848         6.595600000
        63           31.500000         0.010652380       560.625270137       -40.864194738       -40.853376856         5.288202000
        64           32.000000         0.010989628       578.374293372       -40.864346509       -40.853376865         5.309347000
        65           32.500000         0.011230698       591.061598643       -40.864498259       -40.853376872         5.295089000
        66           33.000000         0.011220451       590.522352237       -40.864649912       -40.853376878         5.309914000
        67           33.500000         0.011442209       602.193278871       -40.864800944       -40.853376884         5.279169000
        68           34.000000         0.011545489       607.628796432       -40.864950909       -40.853376887         2.758503000
        69           34.500000         0.011861669       624.269081125       -40.865101201       -40.853376889         6.589195000
        70           35.000000         0.012001560       631.631416801       -40.865251665       -40.853376897         5.309224000
        71           35.500000         0.012247757       644.588519347       -40.865401654       -40.853376904         5.295637000
        72           36.000000         0.012606761       663.482608989       -40.865551662       -40.853376908         5.301572000
        73           36.500000         0.012580677       662.109810484       -40.865700941       -40.853376912         5.285602000
        74           37.000000         0.012597436       662.991804838       -40.865848600       -40.853376913         5.284069000
        75           37.500000         0.012810782       674.220015633       -40.865994580       -40.853376911         5.309465000
        76           38.000000         0.012872490       677.467641673       -40.866140387       -40.853376916         5.324748000
        77           38.500000         0.013041689       686.372469027       -40.866284846       -40.853376917         5.281517000
        78           39.000000         0.013212735       695.374452836       -40.866428632       -40.853376915         5.300250000
        79           39.500000         0.013415293       706.034882082       -40.866571754       -40.853376917         5.290447000
        80           40.000000         0.013436680       707.160497998       -40.866714367       -40.853376922         5.316170000
        81           40.500000         0.013630335       717.352394806       -40.866855532       -40.853376920         5.304513000
        82           41.000000         0.013899008       731.492393673       -40.866996321       -40.853376919         5.304833000
        83           41.500000         0.014093001       741.702059935       -40.867136771       -40.853376924         5.290418000
        84           42.000000         0.014307667       752.999743787       -40.867276479       -40.853376925         5.338902000
        85           42.500000         0.014527837       764.587107466       -40.867415804       -40.853376926         4.043657000
        86           43.000000         0.014735667       775.525032054       -40.867554419       -40.853376930         6.559708000
        87           43.500000         0.014893446       783.828763334       -40.867691970       -40.853376928         5.324298000
        88           44.000000         0.014971521       787.937775289       -40.867829309       -40.853376929         5.295263000
        89           44.500000         0.015129899       796.273069959       -40.867964916       -40.853376928         5.307409000
        90           45.000000         0.015413315       811.189042421       -40.868100260       -40.853376926         5.311083000
        91           45.500000         0.015353031       808.016311058       -40.868234793       -40.853376930         5.335456000
        92           46.000000         0.015408256       810.922789292       -40.868367788       -40.853376927         5.339405000
        93           46.500000         0.015613403       821.719466633       -40.868500424       -40.853376924         5.333623000
        94           47.000000         0.015634534       822.831572692       -40.868631609       -40.853376923         5.330070000
        95           47.500000         0.015705474       826.565095361       -40.868762074       -40.853376922         5.324999000
        96           48.000000         0.015821014       832.645849215       -40.868891332       -40.853376918         4.007311000
        97           48.500000         0.015860090       834.702396909       -40.869019986       -40.853376915         5.312435000
        98           49.000000         0.015931297       838.449961311       -40.869147813       -40.853376914         5.376135000
        99           49.500000         0.016086786       846.633212301       -40.869275274       -40.853376917         5.322500000
       100           50.000000         0.016367399       861.401587226       -40.869402050       -40.853376916         4.035878000
       101           50.500000         0.016675867       877.635997429       -40.869529277       -40.853376913         6.635188000
       102           51.000000         0.017180825       904.211502249       -40.869656778       -40.853376914         5.312107000
       103           51.500000         0.017311494       911.088499033       -40.869784619       -40.853376917         5.317769000
       104           52.000000         0.017468560       919.354716507       -40.869911781       -40.853376917         5.290163000
       105           52.500000         0.017713533       932.247449944       -40.870038885       -40.853376917         5.335945000
       106           53.000000         0.017796784       936.628879767       -40.870165264       -40.853376919         5.298102000
       107           53.500000         0.017934331       943.867858567       -40.870291210       -40.853376920         5.346619000
       108           54.000000         0.017890418       941.556764134       -40.870415717       -40.853376916         5.294287000
       109           54.500000         0.017975807       946.050710423       -40.870539314       -40.853376911         5.331463000
       110           55.000000         0.018146655       955.042281984       -40.870663378       -40.853376910         6.664928000
       111           55.500000         0.018159270       955.706195616       -40.870785646       -40.853376912         6.603082000
       112           56.000000         0.018235727       959.730025712       -40.870907676       -40.853376913         6.588253000
       113           56.500000         0.018295353       962.868113712       -40.871028791       -40.853376914         5.307749000
       114           57.000000         0.018241798       960.049540138       -40.871148846       -40.853376911         5.324918000
       115           57.500000         0.018169237       956.230734396       -40.871267953       -40.853376911         5.296510000
       116           58.000000         0.018139156       954.647608362       -40.871385318       -40.853376908         5.349848000
       117           58.500000         0.018190570       957.353464960       -40.871502259       -40.853376908         5.299147000
       118           59.000000         0.018095247       952.336699466       -40.871617986       -40.853376910         5.302750000
       119           59.500000         0.018098107       952.487205364       -40.871732999       -40.853376909         5.303917000
       120           60.000000         0.018435044       970.219899993       -40.871847637       -40.853376913         5.344783000
       121           60.500000         0.018516626       974.513506393       -40.871961595       -40.853376916         5.315809000
       122           61.000000         0.018665043       982.324561131       -40.872075339       -40.853376921         5.290982000
       123           61.500000         0.018759183       987.279053387       -40.872188355       -40.853376923         4.023263000
       124           62.000000         0.018739592       986.247986238       -40.872300370       -40.853376923         5.316035000
       125           62.500000         0.018652782       981.679282398       -40.872411315       -40.853376926         5.312831000
       126           63.000000         0.018672938       982.740065857       -40.872521114       -40.853376931         5.313544000
       127           63.500000         0.018930607       996.300969883       -40.872630135       -40.853376939         4.036705000
       128           64.000000         0.019040271      1002.072456919       -40.872738417       -40.853376947         6.605524000
       129           64.500000         0.019289274      1015.177273473       -40.872845933       -40.853376952         5.288634000
       130           65.000000         0.019202593      1010.615346359       -40.872952179       -40.853376955         5.304790000
       131           65.500000         0.019646056      1033.954394912       -40.873057461       -40.853376960         5.333735000
       132           66.000000         0.019737390      1038.761230235       -40.873162109       -40.853376969         5.328153000
       133           66.500000         0.019904423      1047.552012398       -40.873265105       -40.853376974         5.304986000
       134           67.000000         0.020127929      1059.314958732       -40.873366690       -40.853376975         5.300698000
       135           67.500000         0.020324274      1069.648410911       -40.873467421       -40.853376982         6.588143000
       136           68.000000         0.020506828      1079.256085820       -40.873566817       -40.853376983         4.052406000
       137           68.500000         0.020518033      1079.845764320       -40.873664530       -40.853376982         5.308140000
       138           69.000000         0.020682620      1088.507816501       -40.873760310       -40.853376990         5.332013000
       139           69.500000         0.020730631      1091.034633678       -40.873853802       -40.853377001         5.319564000
       140           70.000000         0.020724797      1090.727602953       -40.873944885       -40.853377009         5.322845000
       141           70.500000         0.020919275      1100.962775721       -40.874033773       -40.853377014         5.312720000
       142           71.000000         0.020981920      1104.259756338       -40.874120608       -40.853377033         5.319705000
       143           71.500000         0.021187301      1115.068728141       -40.874205066       -40.853377036         5.377907000
       144           72.000000         0.021496426      1131.337728961       -40.874286859       -40.853377043         5.314327000
       145           72.500000         0.021690551      1141.554374056       -40.874366199       -40.853377054         5.318441000
       146           73.000000         0.021679988      1140.998416243       -40.874442696       -40.853377065         5.318133000
       147           73.500000         0.021554057      1134.370768702       -40.874515957       -40.853377073         5.446229000
       148           74.000000         0.021513056      1132.212934196       -40.874585752       -40.853377079         5.325654000
       149           74.500000         0.021598592      1136.714614582       -40.874652107       -40.853377085         5.243500000
       150           75.000000         0.021573805      1135.410094852       -40.874715032       -40.853377100         5.244504000
       151           75.500000         0.021631316      1138.436848906       -40.874774384       -40.853377113         5.213525000
       152           76.000000         0.021711591      1142.661662312       -40.874830034       -40.853377121         5.173742000
       153           76.500000         0.021848718      1149.878539100       -40.874882129       -40.853377133         5.234051000
       154           77.000000         0.022244991      1170.734032848       -40.874930341       -40.853377145         5.265057000
       155           77.500000         0.022423822      1180.145724393       -40.874974604       -40.853377157         5.571617000
       156           78.000000         0.022518855      1185.147261609       -40.875014688       -40.853377170         5.224054000
       157           78.500000         0.022558509      1187.234226067       -40.875050095       -40.853377179         5.266349000
       158           79.000000         0.022656758      1192.404953088       -40.875080846       -40.853377185         5.228482000
       159           79.500000         0.022622516      1190.602841438       -40.875106831       -40.853377193         5.201588000
       160           80.000000         0.022618654      1190.399586136       -40.875127885       -40.853377210         5.209547000
       161           80.500000         0.022551521      1186.866438590       -40.875143728       -40.853377217         6.465291000
       162           81.000000         0.022507142      1184.530780708       -40.875154379       -40.853377226         6.605140000
       163           81.500000         0.022374934      1177.572838871       -40.875159650       -40.853377238         6.578805000
       164           82.000000         0.021979535      1156.763297087       -40.875159538       -40.853377245         5.345801000
       165           82.500000         0.021921651      1153.716912419       -40.875154028       -40.853377257         5.327540000
       166           83.000000         0.021894201      1152.272246247       -40.875142993       -40.853377269         5.331008000
       167           83.500000         0.022023778      1159.091788170       -40.875126257       -40.853377281         5.309068000
       168           84.000000         0.022021180      1158.955084075       -40.875103740       -40.853377288         5.320186000
       169           84.500000         0.022245337      1170.752228139       -40.875075316       -40.853377293         5.331905000
       170           85.000000         0.022197849      1168.252997099       -40.875040666       -40.853377303         5.332605000
       171           85.500000         0.022035523      1159.709895682       -40.874999933       -40.853377309         5.331474000
       172           86.000000         0.021745671      1144.455273674       -40.874953148       -40.853377309         5.324665000
       173           86.500000         0.021743168      1144.323528341       -40.874900173       -40.853377314         5.314468000
       174           87.000000         0.021745274      1144.434369989       -40.874840894       -40.853377324         5.313390000
       175           87.500000         0.021461969      1129.524310256       -40.874775408       -40.853377329         5.313629000
       176           88.000000         0.021174912      1114.416747583       -40.874703837       -40.853377327         5.323663000
       177           88.500000         0.021136555      1112.398019049       -40.874626001       -40.853377330         5.329424000
       178           89.000000         0.020922790      1101.147750046       -40.874541940       -40.853377338         5.336122000
       179           89.500000         0.021222930      1116.943849750       -40.874451443       -40.853377340         5.315826000
       180           90.000000         0.021077621      1109.296366268       -40.874353913       -40.853377345         5.310646000
       181           90.500000         0.021063221      1108.538536693       -40.874249537       -40.853377349         5.329797000
       182           91.000000         0.020822711      1095.880706030       -40.874138906       -40.853377349         5.325853000
       183           91.500000         0.020798740      1094.619138477       -40.874021702       -40.853377338         5.334248000
       184           92.000000         0.020736117      1091.323343833       -40.873897952       -40.853377339         5.299760000
       185           92.500000         0.020634883      1085.995492610       -40.873767235       -40.853377341         5.311332000
       186           93.000000         0.020411243      1074.225517103       -40.873630163       -40.853377338         5.326813000
       187           93.500000         0.020312735      1069.041143477       -40.873486405       -40.853377333         5.335136000
       188           94.000000         0.020244601      1065.455274216       -40.873336170       -40.853377331         5.363184000
       189           94.500000         0.020032336      1054.283953652       -40.873179155       -40.853377330         5.318739000
       190           95.000000         0.019692166      1036.381130655       -40.873016377       -40.853377323         5.315393000
       191           95.500000         0.019495767      1026.044840041       -40.872847650       -40.853377313         5.328190000
       192           96.000000         0.019134795      1007.047168740       -40.872673431       -40.853377305         5.322381000
       193           96.500000         0.018824181       990.699870319       -40.872494614       -40.853377295         5.311971000
       194           97.000000         0.018528613       975.144365316       -40.872310057       -40.853377287         5.314593000
       195           97.500000         0.018270407       961.555225596       -40.872120735       -40.853377279         5.312642000
       196           98.000000         0.018372153       966.910011393       -40.871925443       -40.853377268         5.312286000
       197           98.500000         0.018184557       957.037030995       -40.871723399       -40.853377263         5.309431000
       198           99.000000         0.017873585       940.670823117       -40.871516480       -40.853377256         6.618951000
       199           99.500000         0.017601102       926.330295703       -40.871305221       -40.853377241         5.333128000
       200          100.000000         0.017399512       915.720818546       -40.871089872       -40.853377226         5.336111000
