      96
 i =        0, time =        0.000, E =      -779.9658733966
 As         0.0001376353       -0.0000830204       -0.0000247120
 As         0.0000513897       -0.0000364359       -0.0000425413
 As        -0.0000303900       -0.0000589634       -0.0000866234
 As         0.0001768745       -0.0001267015        0.0000610698
 As         0.0001649640       -0.0000654450        0.0000230896
 As         0.0000585424       -0.0000620014        0.0001176872
 As         0.0000047475       -0.0000607693        0.0000732456
 As        -0.0001260142       -0.0001011260       -0.0000663211
 As        -0.0000951497        0.0000816586       -0.0000814779
 As        -0.0000133474        0.0001740367       -0.0000571945
 As        -0.0000326905        0.0001419306       -0.0000590630
 As         0.0000674455       -0.0000292873        0.0001070110
 As         0.0000051316        0.0000312093       -0.0001045977
 As        -0.0000573637       -0.0000211397        0.0000780286
 As        -0.0000074483        0.0001541337        0.0000028255
 As         0.0001730670        0.0000509907        0.0000250736
 As        -0.0000033998       -0.0001273634        0.0000958100
 As        -0.0000242475        0.0000348655        0.0000316718
 As         0.0000536292        0.0000010643       -0.0000189015
 As        -0.0000535489        0.0000767479        0.0000412504
 As         0.0000548820       -0.0000112171        0.0001784225
 As        -0.0000942418        0.0000006579       -0.0000380199
 As         0.0001310571        0.0000012992       -0.0000502601
 As        -0.0002371353       -0.0000232156        0.0000124726
 As        -0.0000884238        0.0000683844       -0.0000561594
 As         0.0001321662        0.0000858710        0.0001117708
 As         0.0000491944       -0.0001328884        0.0000404735
 As         0.0000338641        0.0000041536        0.0000010908
 As        -0.0001413073       -0.0000209071        0.0000513288
 As        -0.0001069925        0.0000022547       -0.0000348871
 As        -0.0000043432        0.0001096074        0.0000786730
 As        -0.0000558074        0.0000504523        0.0000861854
 As         0.0001811045        0.0000967773        0.0001027900
 As         0.0000333246       -0.0000826401       -0.0000649224
 As         0.0001673269        0.0000601777       -0.0000597716
 As        -0.0001043245       -0.0000962570        0.0000122639
 As        -0.0001457675        0.0000703290       -0.0000416287
 As        -0.0000372205        0.0001531431        0.0000439781
 Se         0.0000053451       -0.0000270036       -0.0000058355
 Se        -0.0001220857       -0.0000062301        0.0000094334
 Se         0.0000189129        0.0000092071       -0.0001373366
 Se        -0.0000399269       -0.0000922253       -0.0000493311
 Se        -0.0000433777       -0.0000414134       -0.0000367177
 Se         0.0000260193       -0.0000550613       -0.0000102920
 Se        -0.0001363681       -0.0001416518       -0.0000089690
 Se        -0.0000193751       -0.0000456848       -0.0000851518
 Se         0.0000547510        0.0000196851       -0.0001756860
 Se         0.0000436401        0.0001219686       -0.0000031386
 Se        -0.0001267101       -0.0000236695       -0.0000346654
 Se         0.0000574492       -0.0000439677        0.0000245842
 Se         0.0000517052       -0.0000069604       -0.0000069004
 Se         0.0000994213       -0.0000881429        0.0000941364
 Se         0.0000481937        0.0001750136        0.0000823847
 Se         0.0000090108        0.0000073866        0.0000160181
 Se        -0.0001280677       -0.0000262721       -0.0001465474
 Se        -0.0000670364       -0.0000820591       -0.0000207657
 Se         0.0001078498       -0.0000199066       -0.0000488354
 Se         0.0001550780       -0.0000417335        0.0001102699
 Se         0.0000219285       -0.0000128185        0.0001140296
 Se         0.0000299132       -0.0000408767       -0.0000345233
 Se        -0.0000385602        0.0000561690        0.0000884710
 Se         0.0000444644       -0.0000945729        0.0000081939
 Se        -0.0000125979        0.0000125614       -0.0000349609
 Se         0.0000882299       -0.0000707933        0.0000636542
 Se        -0.0000762200        0.0000754019       -0.0001189833
 Se         0.0000126991       -0.0000736340        0.0001088447
 Se        -0.0000596321        0.0000615967        0.0001027217
 Se         0.0001074335        0.0000581448        0.0001325084
 Se         0.0000463607        0.0000174599        0.0000119220
 Se         0.0000873240        0.0000225123       -0.0002007252
 Se         0.0000644491        0.0000771169        0.0001856401
 Se        -0.0000041510       -0.0000811272       -0.0000472293
 Se         0.0000548499       -0.0001516487        0.0000522422
 Se        -0.0000523515        0.0001170976       -0.0000712421
 Se        -0.0000695184       -0.0000540534       -0.0000430905
 Se        -0.0000640063       -0.0001580972       -0.0000350531
 Se        -0.0000795839       -0.0001276752        0.0001516631
 Se        -0.0000481992        0.0000042728       -0.0001268436
 Se         0.0000343077       -0.0000289078       -0.0001031436
 Se         0.0000179897        0.0001699821       -0.0000501174
 Se        -0.0000404531        0.0000696113        0.0001598459
 Se        -0.0001612142        0.0000316630       -0.0000877641
 Se        -0.0000102033       -0.0001506462       -0.0000071824
 Se        -0.0000496671        0.0000958325        0.0000681747
 Se        -0.0000842838       -0.0000368075       -0.0000484705
 Se        -0.0000309350        0.0000381833        0.0000779017
 Se        -0.0000079421        0.0001304055       -0.0000171847
 Se         0.0000732493       -0.0000697297        0.0000471902
 Se         0.0001445919        0.0000913701       -0.0000925436
 Se        -0.0000201161        0.0000461537       -0.0000259118
 Se        -0.0000538801       -0.0000052027       -0.0000931999
 Se         0.0000425533        0.0000105989        0.0000021475
 Se        -0.0000285416       -0.0000004691       -0.0001695705
 Se        -0.0000262471        0.0000528669       -0.0000839880
 Se        -0.0000859903        0.0000152785        0.0001081945
 Se         0.0000334467        0.0000170092       -0.0000223862
      96
 i =        5, time =        2.500, E =      -780.1369786303
 As         0.0001644881       -0.0000606988       -0.0000489765
 As         0.0000758407       -0.0000289952       -0.0000479358
 As         0.0000194878       -0.0000648367       -0.0000727444
 As         0.0001863343       -0.0001354458        0.0000781628
 As         0.0001688349       -0.0000569070        0.0000392760
 As         0.0000823425       -0.0000668369        0.0001012145
 As         0.0000173681       -0.0000901568       -0.0000674753
 As        -0.0001296471       -0.0001111590       -0.0000914965
 As        -0.0000996392        0.0000902952       -0.0000972530
 As        -0.0000259786        0.0001834809       -0.0000247693
 As         0.0000080733        0.0001157865       -0.0000579067
 As         0.0000165472       -0.0000165024        0.0000981848
 As         0.0000884247        0.0000731000       -0.0001088666
 As        -0.0000682844       -0.0000085665        0.0000823779
 As        -0.0000283843        0.0001604020       -0.0000008607
 As         0.0001614856        0.0000380970       -0.0000115488
 As        -0.0000296259       -0.0001186761        0.0001166571
 As        -0.0000055866        0.0000353205        0.0000483057
 As         0.0000593622        0.0000047193       -0.0000261808
 As        -0.0000598508        0.0000897478        0.0000353607
 As         0.0000587430       -0.0000484806        0.0001839373
 As        -0.0001107735       -0.0000093474       -0.0000300608
 As         0.0001454856       -0.0000071713       -0.0000635571
 As        -0.0002204910        0.0000246379        0.0000043392
 As        -0.0002520815       -0.0001408626        0.0000878225
 As         0.0001358961        0.0000750345        0.0001226806
 As         0.0000412929       -0.0001418505        0.0000352092
 As         0.0000152306        0.0000065955       -0.0000209309
 As        -0.0001545824       -0.0000256942        0.0000479830
 As        -0.0000914943       -0.0000114655       -0.0000167757
 As        -0.0000739543       -0.0003301211        0.0000712011
 As        -0.0000614935        0.0000470833        0.0000824441
 As         0.0001878230        0.0000952393        0.0001121424
 As         0.0000356519       -0.0000828951       -0.0000613158
 As         0.0001539918        0.0000528486       -0.0000466823
 As        -0.0000745149       -0.0000920296       -0.0000034317
 As        -0.0001539926        0.0000879350       -0.0000369888
 As        -0.0000265086        0.0001517218        0.0000316797
 Se         0.0000147142       -0.0000219461       -0.0000134359
 Se        -0.0001188810       -0.0000044796       -0.0000153344
 Se         0.0000123253        0.0000150771       -0.0001371515
 Se        -0.0000425443       -0.0001059368       -0.0000560182
 Se        -0.0000620367       -0.0000527505       -0.0000360831
 Se         0.0000285893       -0.0000483945       -0.0000081865
 Se        -0.0001041669       -0.0001620072       -0.0000312740
 Se        -0.0000415270       -0.0000515959       -0.0000651621
 Se         0.0000147914        0.0000276520       -0.0001850410
 Se         0.0000577150        0.0000989556       -0.0000097436
 Se        -0.0001437452       -0.0000479600       -0.0000167538
 Se         0.0000594428       -0.0000534658       -0.0000123350
 Se         0.0000551510       -0.0000048067       -0.0000045229
 Se         0.0001050992       -0.0001038170        0.0000948147
 Se         0.0000355266        0.0001829293        0.0000971374
 Se         0.0000333402        0.0000259775       -0.0000067494
 Se        -0.0001197888       -0.0000361087       -0.0001645570
 Se        -0.0000803708       -0.0000679984       -0.0000310941
 Se         0.0001114500        0.0000068494       -0.0000385702
 Se         0.0001533847       -0.0000563396        0.0001152283
 Se         0.0000138801       -0.0000396636        0.0001345260
 Se         0.0000262278       -0.0000315951       -0.0000193496
 Se        -0.0000511202        0.0000669024        0.0000943370
 Se         0.0000426092       -0.0000894795        0.0000494368
 Se        -0.0000196985        0.0000155331       -0.0000355051
 Se         0.0000673976       -0.0001017039        0.0000520100
 Se        -0.0000895265        0.0000737223       -0.0001174232
 Se        -0.0000178131       -0.0000651650        0.0001288053
 Se        -0.0000378038        0.0000506911        0.0001014143
 Se         0.0001134970        0.0000564359        0.0001284819
 Se         0.0000706618       -0.0000011891       -0.0000046386
 Se         0.0000942140        0.0000080857       -0.0001922146
 Se         0.0000407958        0.0000843850        0.0002097449
 Se        -0.0000188328       -0.0000187613        0.0000895329
 Se        -0.0000851392       -0.0001457095        0.0000799087
 Se        -0.0000546305        0.0001290900       -0.0000653852
 Se        -0.0000749311       -0.0000319292       -0.0000225305
 Se        -0.0000541136       -0.0001495379       -0.0000420643
 Se        -0.0000620107       -0.0001559398        0.0001760331
 Se        -0.0000435425        0.0000132900       -0.0001326947
 Se         0.0000179264       -0.0000513081       -0.0001009117
 Se         0.0000200680        0.0001752640       -0.0000499120
 Se         0.0001722418       -0.0006114509       -0.0001843363
 Se        -0.0001450098        0.0001227453       -0.0000770762
 Se        -0.0002399181        0.0005596176        0.0003148444
 Se        -0.0001174475        0.0000543692        0.0000848406
 Se        -0.0000873556       -0.0000302656       -0.0000646857
 Se         0.0001195818        0.0002353363       -0.0000546267
 Se         0.0001244435        0.0000386825       -0.0000260261
 Se         0.0000776529       -0.0000697286        0.0000753469
 Se        -0.0000119052       -0.0002739261        0.0003859749
 Se        -0.0000101317        0.0000628831       -0.0000200019
 Se         0.0000852795        0.0003586502       -0.0006151079
 Se         0.0000611300       -0.0000150103       -0.0000202481
 Se        -0.0000528360        0.0000034072       -0.0001634972
 Se         0.0000302375        0.0004661936       -0.0000921579
 Se        -0.0000818139        0.0000161463        0.0001078041
 Se         0.0000614155        0.0000515607       -0.0000083659
      96
 i =       10, time =        5.000, E =      -780.5435402691
 As         0.0001915860       -0.0000382948       -0.0000735382
 As         0.0001003267       -0.0000215968       -0.0000533103
 As         0.0000691682       -0.0000705023       -0.0000587604
 As         0.0001959832       -0.0001443129        0.0000954772
 As         0.0001724358       -0.0000493434        0.0000548899
 As         0.0001064491       -0.0000717119        0.0000846979
 As         0.0000299968       -0.0001173354       -0.0002028580
 As        -0.0001333654       -0.0001213381       -0.0001170138
 As        -0.0001045893        0.0000993186       -0.0001127645
 As        -0.0000386113        0.0001931369        0.0000074160
 As         0.0000486839        0.0000899042       -0.0000570549
 As        -0.0000341512       -0.0000038002        0.0000894788
 As         0.0001668475        0.0001118675       -0.0001119367
 As        -0.0000792368        0.0000039775        0.0000867170
 As        -0.0000478025        0.0001658666       -0.0000048309
 As         0.0001501639        0.0000250765       -0.0000481268
 As        -0.0000558468       -0.0001102931        0.0001376353
 As         0.0000139314        0.0000361512        0.0000645877
 As         0.0000654293        0.0000086604       -0.0000335672
 As        -0.0000659560        0.0001029026        0.0000298734
 As         0.0000631623       -0.0000850599        0.0001894433
 As        -0.0001275459       -0.0000193122       -0.0000223966
 As         0.0001586244       -0.0000146930       -0.0000761139
 As        -0.0002050027        0.0000718730       -0.0000042135
 As        -0.0003955810       -0.0003229278        0.0002126235
 As         0.0001398753        0.0000640183        0.0001336096
 As         0.0000337444       -0.0001499065        0.0000304434
 As        -0.0000034117        0.0000089137       -0.0000428805
 As        -0.0001680064       -0.0000307553        0.0000447473
 As        -0.0000761521       -0.0000251097        0.0000013729
 As        -0.0001313444       -0.0006968092        0.0000650344
 As        -0.0000672807        0.0000435874        0.0000786448
 As         0.0001946146        0.0000936596        0.0001214217
 As         0.0000378909       -0.0000834039       -0.0000578129
 As         0.0001411353        0.0000457078       -0.0000333435
 As        -0.0000450075       -0.0000879953       -0.0000188269
 As        -0.0001624119        0.0001056122       -0.0000322562
 As        -0.0000158206        0.0001505496        0.0000194895
 Se         0.0000242839       -0.0000168266       -0.0000212112
 Se        -0.0001154447       -0.0000025643       -0.0000400131
 Se         0.0000056600        0.0000210575       -0.0001370529
 Se        -0.0000452260       -0.0001197063       -0.0000626933
 Se        -0.0000808589       -0.0000641414       -0.0000355779
 Se         0.0000311838       -0.0000417717       -0.0000061073
 Se        -0.0000721759       -0.0001822725       -0.0000534829
 Se        -0.0000635431       -0.0000575853       -0.0000452901
 Se        -0.0000249506        0.0000355026       -0.0001946289
 Se         0.0000717397        0.0000762237       -0.0000161489
 Se        -0.0001609445       -0.0000724589        0.0000013826
 Se         0.0000613903       -0.0000628795       -0.0000490165
 Se         0.0000588265       -0.0000027589       -0.0000020888
 Se         0.0001106751       -0.0001195399        0.0000957149
 Se         0.0000227938        0.0001906223        0.0001118915
 Se         0.0000575438        0.0000446722       -0.0000296357
 Se        -0.0001117007       -0.0000461210       -0.0001826565
 Se        -0.0000936307       -0.0000540335       -0.0000412520
 Se         0.0001150204        0.0000337924       -0.0000283364
 Se         0.0001520461       -0.0000711204        0.0001203923
 Se         0.0000059958       -0.0000664476        0.0001550031
 Se         0.0000226922       -0.0000222905       -0.0000042747
 Se        -0.0000637262        0.0000776665        0.0000998741
 Se         0.0000407143       -0.0000844221        0.0000907338
 Se        -0.0000275037        0.0000185181       -0.0000361946
 Se         0.0000465853       -0.0001323961        0.0000404377
 Se        -0.0001027499        0.0000722296       -0.0001161732
 Se        -0.0000483586       -0.0000565616        0.0001488503
 Se        -0.0000161379        0.0000398230        0.0000998638
 Se         0.0001199605        0.0000546407        0.0001248277
 Se         0.0000952926       -0.0000200220       -0.0000212847
 Se         0.0001011513       -0.0000063438       -0.0001841628
 Se         0.0000170763        0.0000916687        0.0002340997
 Se        -0.0000337459        0.0000416737        0.0002210980
 Se        -0.0002184669       -0.0001404976        0.0001062176
 Se        -0.0000572916        0.0001415362       -0.0000589689
 Se        -0.0000803859       -0.0000097243       -0.0000019299
 Se        -0.0000443178       -0.0001410838       -0.0000490213
 Se        -0.0000424477       -0.0001877537        0.0002024493
 Se        -0.0000387452        0.0000224215       -0.0001387129
 Se         0.0000014596       -0.0000739277       -0.0000986405
 Se         0.0000222474        0.0001807922       -0.0000494263
 Se         0.0003256049       -0.0011116328       -0.0004522071
 Se        -0.0001301914        0.0002106156       -0.0000672141
 Se        -0.0004124949        0.0010924208        0.0005585737
 Se        -0.0001806991        0.0000157738        0.0001007567
 Se        -0.0000907201       -0.0000236578       -0.0000811164
 Se         0.0002506513        0.0004068199       -0.0001688964
 Se         0.0002517192       -0.0000495165       -0.0000332838
 Se         0.0000818508       -0.0000704421        0.0001062721
 Se        -0.0001390242       -0.0005593811        0.0007412354
 Se        -0.0000004940        0.0000796574       -0.0000140578
 Se         0.0001943855        0.0006428972       -0.0010164236
 Se         0.0000796441       -0.0000406852       -0.0000427615
 Se        -0.0000769242        0.0000075171       -0.0001575494
 Se         0.0000759090        0.0008098025       -0.0001017094
 Se        -0.0000773195        0.0000168445        0.0001075556
 Se         0.0000894779        0.0000859477        0.0000057167
      96
 i =       15, time =        7.500, E =      -780.9325021894
 As         0.0002191969       -0.0000158221       -0.0000985970
 As         0.0001250724       -0.0000141905       -0.0000587408
 As         0.0001186572       -0.0000760640       -0.0000447411
 As         0.0002060703       -0.0001534022        0.0001131693
 As         0.0001758501       -0.0000429812        0.0000697421
 As         0.0001311147       -0.0000766532        0.0000680344
 As         0.0000425665       -0.0001391608       -0.0003255871
 As        -0.0001371416       -0.0001319931       -0.0001431919
 As        -0.0001104570        0.0001089024       -0.0001277600
 As        -0.0000513982        0.0002031663        0.0000394667
 As         0.0000893536        0.0000643184       -0.0000565425
 As        -0.0000846278        0.0000088060        0.0000809855
 As         0.0002376230        0.0001459439       -0.0001129353
 As        -0.0000903407        0.0000165259        0.0000910820
 As        -0.0000653621        0.0001705126       -0.0000091481
 As         0.0001393261        0.0000115965       -0.0000847603
 As        -0.0000821527       -0.0001022037        0.0001588391
 As         0.0000348231        0.0000378131        0.0000799015
 As         0.0000718740        0.0000130061       -0.0000411382
 As        -0.0000718297        0.0001165895        0.0000248085
 As         0.0000682650       -0.0001204180        0.0001949606
 As        -0.0001448295       -0.0000293278       -0.0000151463
 As         0.0001702976       -0.0000211000       -0.0000878513
 As        -0.0001917766        0.0001182356       -0.0000135783
 As        -0.0005051942       -0.0004599272        0.0003067744
 As         0.0001442081        0.0000527873        0.0001447904
 As         0.0000266128       -0.0001570292        0.0000262855
 As        -0.0000221530        0.0000111137       -0.0000648645
 As        -0.0001816989       -0.0000361400        0.0000416798
 As        -0.0000610630       -0.0000385481        0.0000196376
 As        -0.0001702590       -0.0009537585        0.0000582970
 As        -0.0000731890        0.0000401245        0.0000748584
 As         0.0002014981        0.0000918976        0.0001307504
 As         0.0000401671       -0.0000841385       -0.0000543147
 As         0.0001289312        0.0000387904       -0.0000196979
 As        -0.0000158324       -0.0000843230       -0.0000338518
 As        -0.0001712056        0.0001234320       -0.0000273189
 As        -0.0000051325        0.0001497824        0.0000074511
 Se         0.0000341113       -0.0000116561       -0.0000292317
 Se        -0.0001119303       -0.0000005378       -0.0000647586
 Se        -0.0000011832        0.0000270351       -0.0001371433
 Se        -0.0000480164       -0.0001336141       -0.0000693949
 Se        -0.0000999693       -0.0000756727       -0.0000353361
 Se         0.0000338793       -0.0000351781       -0.0000040801
 Se        -0.0000403933       -0.0002026510       -0.0000756289
 Se        -0.0000855202       -0.0000637882       -0.0000254614
 Se        -0.0000647338        0.0000433427       -0.0002046074
 Se         0.0000855743        0.0000540962       -0.0000224085
 Se        -0.0001785698       -0.0000972535        0.0000198802
 Se         0.0000632817       -0.0000722397       -0.0000855907
 Se         0.0000629675       -0.0000009174        0.0000004521
 Se         0.0001162176       -0.0001353725        0.0000969234
 Se         0.0000100114        0.0001981904        0.0001267651
 Se         0.0000817273        0.0000635563       -0.0000527469
 Se        -0.0001039772       -0.0000564164       -0.0002010802
 Se        -0.0001069361       -0.0000401695       -0.0000513733
 Se         0.0001186990        0.0000610864       -0.0000181488
 Se         0.0001512286       -0.0000861709        0.0001259117
 Se        -0.0000017887       -0.0000931356        0.0001754669
 Se         0.0000197650       -0.0000129934        0.0000106243
 Se        -0.0000764582        0.0000884299        0.0001051013
 Se         0.0000387793       -0.0000794956        0.0001322856
 Se        -0.0000359411        0.0000214830       -0.0000370265
 Se         0.0000258619       -0.0001630512        0.0000288528
 Se        -0.0001159981        0.0000710395       -0.0001153363
 Se        -0.0000791662       -0.0000477938        0.0001691901
 Se         0.0000052608        0.0000290364        0.0000980138
 Se         0.0001269636        0.0000528020        0.0001215968
 Se         0.0001204920       -0.0000391355       -0.0000381256
 Se         0.0001082719       -0.0000207978       -0.0001765931
 Se        -0.0000067225        0.0000990773        0.0002590909
 Se        -0.0000487255        0.0000974930        0.0003405938
 Se        -0.0003374188       -0.0001364894        0.0001289807
 Se        -0.0000606056        0.0001550494       -0.0000512763
 Se        -0.0000860214        0.0000126438        0.0000189132
 Se        -0.0000345264       -0.0001328893       -0.0000560435
 Se        -0.0000184040       -0.0002271398        0.0002333283
 Se        -0.0000337792        0.0000316494       -0.0001450257
 Se        -0.0000153138       -0.0000971283       -0.0000962820
 Se         0.0000246226        0.0001867267       -0.0000486930
 Se         0.0003975640       -0.0013692364       -0.0006210295
 Se        -0.0001173565        0.0002920543       -0.0000586585
 Se        -0.0005085268        0.0013899377        0.0006988514
 Se        -0.0002367600       -0.0000184359        0.0001152449
 Se        -0.0000943996       -0.0000169928       -0.0000977937
 Se         0.0003488276        0.0005357359       -0.0002538751
 Se         0.0003670095       -0.0001304640       -0.0000364799
 Se         0.0000859167       -0.0000726538        0.0001433082
 Se        -0.0002296731       -0.0007392259        0.0009311661
 Se         0.0000088267        0.0000965921       -0.0000080266
 Se         0.0002657424        0.0008221482       -0.0012579459
 Se         0.0000981814       -0.0000665703       -0.0000655587
 Se        -0.0001009665        0.0000118523       -0.0001518349
 Se         0.0001060185        0.0010482774       -0.0001111511
 Se        -0.0000726144        0.0000174377        0.0001074950
 Se         0.0001176784        0.0001202539        0.0000199050
      96
 i =       10, time =        5.000, E =      -780.5435402690
 As         0.0001915860       -0.0000382948       -0.0000735382
 As         0.0001003267       -0.0000215968       -0.0000533103
 As         0.0000691682       -0.0000705023       -0.0000587604
 As         0.0001959832       -0.0001443129        0.0000954772
 As         0.0001724358       -0.0000493434        0.0000548899
 As         0.0001064491       -0.0000717119        0.0000846979
 As         0.0000299968       -0.0001173354       -0.0002028580
 As        -0.0001333654       -0.0001213381       -0.0001170138
 As        -0.0001045893        0.0000993186       -0.0001127645
 As        -0.0000386113        0.0001931369        0.0000074160
 As         0.0000486839        0.0000899042       -0.0000570549
 As        -0.0000341512       -0.0000038002        0.0000894788
 As         0.0001668475        0.0001118675       -0.0001119367
 As        -0.0000792368        0.0000039775        0.0000867170
 As        -0.0000478025        0.0001658666       -0.0000048309
 As         0.0001501639        0.0000250765       -0.0000481268
 As        -0.0000558468       -0.0001102931        0.0001376353
 As         0.0000139314        0.0000361512        0.0000645877
 As         0.0000654293        0.0000086604       -0.0000335672
 As        -0.0000659560        0.0001029026        0.0000298734
 As         0.0000631623       -0.0000850599        0.0001894433
 As        -0.0001275459       -0.0000193122       -0.0000223966
 As         0.0001586244       -0.0000146930       -0.0000761139
 As        -0.0002050027        0.0000718730       -0.0000042135
 As        -0.0003955810       -0.0003229278        0.0002126235
 As         0.0001398753        0.0000640183        0.0001336096
 As         0.0000337444       -0.0001499065        0.0000304434
 As        -0.0000034117        0.0000089137       -0.0000428805
 As        -0.0001680064       -0.0000307553        0.0000447473
 As        -0.0000761521       -0.0000251097        0.0000013729
 As        -0.0001313444       -0.0006968092        0.0000650344
 As        -0.0000672807        0.0000435874        0.0000786448
 As         0.0001946146        0.0000936596        0.0001214217
 As         0.0000378909       -0.0000834039       -0.0000578129
 As         0.0001411353        0.0000457078       -0.0000333435
 As        -0.0000450075       -0.0000879953       -0.0000188269
 As        -0.0001624119        0.0001056122       -0.0000322562
 As        -0.0000158206        0.0001505496        0.0000194895
 Se         0.0000242839       -0.0000168266       -0.0000212112
 Se        -0.0001154447       -0.0000025643       -0.0000400131
 Se         0.0000056600        0.0000210575       -0.0001370529
 Se        -0.0000452260       -0.0001197063       -0.0000626933
 Se        -0.0000808589       -0.0000641414       -0.0000355779
 Se         0.0000311838       -0.0000417717       -0.0000061073
 Se        -0.0000721759       -0.0001822725       -0.0000534829
 Se        -0.0000635431       -0.0000575853       -0.0000452901
 Se        -0.0000249506        0.0000355026       -0.0001946289
 Se         0.0000717397        0.0000762237       -0.0000161489
 Se        -0.0001609445       -0.0000724589        0.0000013826
 Se         0.0000613903       -0.0000628795       -0.0000490165
 Se         0.0000588265       -0.0000027589       -0.0000020888
 Se         0.0001106751       -0.0001195399        0.0000957149
 Se         0.0000227938        0.0001906223        0.0001118915
 Se         0.0000575438        0.0000446722       -0.0000296357
 Se        -0.0001117007       -0.0000461210       -0.0001826565
 Se        -0.0000936307       -0.0000540335       -0.0000412520
 Se         0.0001150204        0.0000337924       -0.0000283364
 Se         0.0001520461       -0.0000711204        0.0001203923
 Se         0.0000059958       -0.0000664476        0.0001550031
 Se         0.0000226922       -0.0000222905       -0.0000042747
 Se        -0.0000637262        0.0000776665        0.0000998741
 Se         0.0000407143       -0.0000844221        0.0000907338
 Se        -0.0000275037        0.0000185181       -0.0000361946
 Se         0.0000465853       -0.0001323961        0.0000404377
 Se        -0.0001027499        0.0000722296       -0.0001161732
 Se        -0.0000483586       -0.0000565616        0.0001488503
 Se        -0.0000161379        0.0000398230        0.0000998638
 Se         0.0001199605        0.0000546407        0.0001248277
 Se         0.0000952926       -0.0000200220       -0.0000212847
 Se         0.0001011513       -0.0000063438       -0.0001841628
 Se         0.0000170763        0.0000916687        0.0002340997
 Se        -0.0000337459        0.0000416737        0.0002210980