 DBCSR| CPU Multiplication driver                                           BLAS (U)
 DBCSR| Multrec recursion limit                                              512 (U)
 DBCSR| Multiplication stack size                                           1000 (D)
 DBCSR| Maximum elements for images                                    UNLIMITED (U)
 DBCSR| Multiplicative factor virtual images                                   1 (U)
 DBCSR| Use multiplication densification                                       T (D)
 DBCSR| Multiplication size stacks                                             3 (U)
 DBCSR| Use memory pool for CPU allocation                                     F (U)
 DBCSR| Number of 3D layers                                               SINGLE (U)
 DBCSR| Use MPI memory allocation                                              F (U)
 DBCSR| Use RMA algorithm                                                      F (U)
 DBCSR| Use Communication thread                                               T (U)
 DBCSR| Communication thread load                                             87 (D)
 DBCSR| MPI: My process id                                                     0
 DBCSR| MPI: Number of processes                                               6
 DBCSR| OMP: Current number of threads                                         1
 DBCSR| OMP: Max number of threads                                             1
 DBCSR| Split modifier for TAS multiplication algorithm                  1.0E+00 (U)


  **** **** ******  **  PROGRAM STARTED AT               2025-09-30 13:56:54.791
 ***** ** ***  *** **   PROGRAM STARTED ON                                   Mac
 **    ****   ******    PROGRAM STARTED BY                           jdmusgraves
 ***** **    ** ** **   PROGRAM PROCESS ID                                 79367
  **** **  *******  **  PROGRAM STARTED IN /Users/jdmusgraves/GitHub/local_shake
                                           down_kit

 CP2K| version string:                                       CP2K version 2025.1
 CP2K| source code revision number:                                             
 CP2K| cp2kflags: omp libint fftw3 libxc parallel scalapack no_statm_access     
 CP2K| is freely available from                            https://www.cp2k.org/
 CP2K| Program compiled at                                   2025-01-01 12:26:53
 CP2K| Program compiled on                                                      
 CP2K| Program compiled for                                                arm64
 CP2K| Data directory path                         /opt/homebrew/share/cp2k/data
 CP2K| Input file name                                inputs/md_smoke_compat.inp

 GLOBAL| Force Environment number                                              1
 GLOBAL| Basis set file name                                        BASIS_MOLOPT
 GLOBAL| Potential file name                                      GTH_POTENTIALS
 GLOBAL| MM Potential file name                                     MM_POTENTIAL
 GLOBAL| Coordinate file name                          inputs/as2se3_96_seed.xyz
 GLOBAL| Method name                                                        CP2K
 GLOBAL| Project name                                            md_smoke_compat
 GLOBAL| Run type                                                             MD
 GLOBAL| FFT library                                                       FFTW3
 GLOBAL| Diagonalization library                                       ScaLAPACK
 GLOBAL| DGEMM library                                                      BLAS
 GLOBAL| Orthonormality check for eigenvectors                          DISABLED
 GLOBAL| Matrix multiplication library                                 ScaLAPACK
 GLOBAL| All-to-all communication in single precision                          F
 GLOBAL| FFTs using library dependent lengths                                  F
 GLOBAL| Grid backend                                                       AUTO
 GLOBAL| Global print level                                                  LOW
 GLOBAL| MPI I/O enabled                                                       T
 GLOBAL| Total number of message passing processes                             6
 GLOBAL| Number of threads for this process                                    1
 GLOBAL| This output is from process                                           0
 GLOBAL| OpenMP stack size per thread (OMP_STACKSIZE)                    default
 GLOBAL| CPU model name                                                  UNKNOWN
 GLOBAL| CPUID                                                              2000

 MEMORY| system memory details [Kb]
 MEMORY|                        rank 0           min           max       average
 MEMORY| MemTotal                    0             0             0             0
 MEMORY| MemFree                     0             0             0             0
 MEMORY| Buffers                     0             0             0             0
 MEMORY| Cached                      0             0             0             0
 MEMORY| Slab                        0             0             0             0
 MEMORY| SReclaimable                0             0             0             0
 MEMORY| MemLikelyFree               0             0             0             0


 GENERATE|  Preliminary Number of Bonds generated:                             0
 GENERATE|  Achieved consistency in connectivity generation.

 *******************************************************************************
 *******************************************************************************
 **                                                                           **
 **     #####                         ##              ##                      **
 **    ##   ##            ##          ##              ##                      **
 **   ##     ##                       ##            ######                    **
 **   ##     ##  ##   ##  ##   #####  ##  ##   ####   ##    #####    #####    **
 **   ##     ##  ##   ##  ##  ##      ## ##   ##      ##   ##   ##  ##   ##   **
 **   ##  ## ##  ##   ##  ##  ##      ####     ###    ##   ######   ######    **
 **    ##  ###   ##   ##  ##  ##      ## ##      ##   ##   ##       ##        **
 **     #######   #####   ##   #####  ##  ##  ####    ##    #####   ##        **
 **           ##                                                    ##        **
 **                                                                           **
 **                                                ... make the atoms dance   **
 **                                                                           **
 **            Copyright (C) by CP2K developers group (2000-2025)             **
 **                      J. Chem. Phys. 152, 194103 (2020)                    **
 **                                                                           **
 *******************************************************************************


 TOTAL NUMBERS AND MAXIMUM NUMBERS

  Total number of            - Atomic kinds:                                   2
                             - Atoms:                                         96
                             - Shell sets:                                    96
                             - Shells:                                       480
                             - Primitive Cartesian functions:                384
                             - Cartesian basis functions:                   1344
                             - Spherical basis functions:                   1248

  Maximum angular momentum of the orbital basis functions:                     2


 SCF PARAMETERS         Density guess:                                    ATOMIC
                        --------------------------------------------------------
                        max_scf:                                             120
                        max_scf_history:                                       0
                        max_diis:                                              4
                        --------------------------------------------------------
                        eps_scf:                                        1.00E-06
                        eps_scf_history:                                0.00E+00
                        eps_diis:                                       1.00E-01
                        eps_eigval:                                     1.00E-05
                        --------------------------------------------------------
                        level_shift [a.u.]:                             0.000000
                        --------------------------------------------------------
                        No outer SCF

 MD_PAR| Molecular dynamics protocol (MD input parameters)
 MD_PAR| Ensemble type                                                       NVT
 MD_PAR| Number of time steps                                                500
 MD_PAR| Time step [fs]                                                 0.500000
 MD_PAR| Temperature [K]                                              300.000000
 MD_PAR| Temperature tolerance [K]                                      0.000000
 MD_PAR| Print MD information every                                    1 step(s)
 MD_PAR| File type   Print frequency [steps]                          File names
 MD_PAR| Coordinates          5 md_smoke_compat-md_smoke_compat-pos-1.xyz-pos-1.
 MD_PAR| Velocities           5 md_smoke_compat-md_smoke_compat-vel-1.xyz-vel-1.
 MD_PAR| Energies             1                           md_smoke_compat-1.ener
 MD_PAR| Dump                20                        md_smoke_compat-1.restart

 ROT| Rotational analysis information
 ROT| Principal axes and moments of inertia [a.u.]
 ROT|                           1                   2                   3
 ROT| Eigenvalues      2.98038846591E+09   3.45948946989E+09   3.87765324832E+09
 ROT|      x             -0.278470614894     -0.951874157248     -0.128022284791
 ROT|      y             -0.611130049135      0.278438678098     -0.740939920360
 ROT|      z              0.740927918008     -0.128091730028     -0.659255890390
 ROT| Number of rotovibrational vectors                                        6

 DOF| Calculation of degrees of freedom
 DOF| Number of atoms                                                         96
 DOF| Number of intramolecular constraints                                     0
 DOF| Number of intermolecular constraints                                     0
 DOF| Invariants (translations + rotations)                                    3
 DOF| Degrees of freedom                                                     285

 DOF| Restraints information
 DOF| Number of intramolecular restraints                                      0
 DOF| Number of intermolecular restraints                                      0

 THERMOSTAT| Thermostat information for PARTICLES
 THERMOSTAT| Type of thermostat            Canonical Sampling/Velocity Rescaling
 THERMOSTAT| CSVR time constant [fs]                                 1000.000000
 THERMOSTAT| Initial kinetic energy                           0.000000000000E+00
 THERMOSTAT| End of thermostat information for PARTICLES

 MD_VEL| Velocities initialization
 MD_VEL| Initial temperature [K]                                      300.000000
 MD_VEL| COM velocity             0.0000000000     0.0000000000    -0.0000000000

 Number of electrons:                                                        538
 Number of occupied orbitals:                                                269
 Number of molecular orbitals:                                               269

 Number of orbital functions:                                               1248
 Number of independent orbital functions:                                   1248

 Extrapolation method: initial_guess


 SCF WAVEFUNCTION OPTIMIZATION

  ----------------------------------- OT ---------------------------------------
  Minimizer      : DIIS                : direct inversion
                                         in the iterative subspace
                                         using   7 DIIS vectors
                                         safer DIIS on
  Preconditioner : FULL_SINGLE_INVERSE : inversion of 
                                         H + eS - 2*(Sc)(c^T*H*c+const)(Sc)^T
  Precond_solver : DEFAULT
  stepsize       :    0.08000000                  energy_gap     :    0.08000000
  eps_taylor     :   0.10000E-15                  max_taylor     :             4
  ----------------------------------- OT ---------------------------------------

  Step     Update method      Time    Convergence         Total energy    Change
  ------------------------------------------------------------------------------
     1 OT DIIS     0.80E-01   31.3     0.02284382      -759.9711625919 -7.60E+02
     2 OT DIIS     0.80E-01   18.5     0.01810117      -765.6821239467 -5.71E+00
     3 OT DIIS     0.80E-01   15.6     0.01064202      -768.9124715353 -3.23E+00
     4 OT DIIS     0.80E-01   15.3     0.00818097      -771.0658202194 -2.15E+00
     5 OT DIIS     0.80E-01   16.6     0.00570672      -773.6525308679 -2.59E+00
     6 OT DIIS     0.80E-01   17.4     0.00394836      -775.3389875619 -1.69E+00
     7 OT DIIS     0.80E-01   17.6     0.00308970      -776.0364348575 -6.97E-01
     8 OT DIIS     0.80E-01   16.3     0.00257012      -776.5167953039 -4.80E-01
     9 OT DIIS     0.80E-01   17.4     0.00225482      -776.9281751633 -4.11E-01
    10 OT DIIS     0.80E-01   16.2     0.00195439      -777.3861568383 -4.58E-01
    11 OT DIIS     0.80E-01   17.0     0.00169948      -777.7782739747 -3.92E-01
    12 OT DIIS     0.80E-01   18.6     0.00146045      -778.1357183298 -3.57E-01
    13 OT DIIS     0.80E-01   17.7     0.00125716      -778.4212192291 -2.86E-01
    14 OT DIIS     0.80E-01   16.1     0.00112918      -778.6014875964 -1.80E-01
    15 OT DIIS     0.80E-01   16.9     0.00102715      -778.7513506770 -1.50E-01
    16 OT DIIS     0.80E-01   15.5     0.00092688      -778.8844359732 -1.33E-01
    17 OT DIIS     0.80E-01   16.2     0.00083891      -779.0008310266 -1.16E-01
    18 OT DIIS     0.80E-01   18.7     0.00076426      -779.0985796322 -9.77E-02
    19 OT DIIS     0.80E-01   18.0     0.00070811      -779.1762966574 -7.77E-02
    20 OT DIIS     0.80E-01   18.1     0.00065559      -779.2472904093 -7.10E-02
    21 OT DIIS     0.80E-01   16.6     0.00061424      -779.3049065016 -5.76E-02
    22 OT DIIS     0.80E-01   14.2     0.00057827      -779.3534766265 -4.86E-02
    23 OT DIIS     0.80E-01   17.4     0.00053888      -779.4081499944 -5.47E-02
    24 OT DIIS     0.80E-01   16.5     0.00050344      -779.4534425351 -4.53E-02
    25 OT DIIS     0.80E-01   17.7     0.00047423      -779.4893819862 -3.59E-02
    26 OT DIIS     0.80E-01   13.6     0.00044207      -779.5311037995 -4.17E-02
    27 OT DIIS     0.80E-01   15.3     0.00041409      -779.5630521627 -3.19E-02
    28 OT DIIS     0.80E-01   15.0     0.00039205      -779.5874127537 -2.44E-02
    29 OT DIIS     0.80E-01   15.5     0.00036935      -779.6128585813 -2.54E-02
    30 OT DIIS     0.80E-01   16.0     0.00034697      -779.6408566402 -2.80E-02
    31 OT DIIS     0.80E-01   16.2     0.00032973      -779.6609772886 -2.01E-02
    32 OT DIIS     0.80E-01   16.8     0.00031593      -779.6754836222 -1.45E-02
    33 OT DIIS     0.80E-01   14.6     0.00029661      -779.6984823480 -2.30E-02
    34 OT DIIS     0.80E-01   13.1     0.00027940      -779.7186613263 -2.02E-02
    35 OT DIIS     0.80E-01   14.3     0.00026931      -779.7292223693 -1.06E-02
    36 OT DIIS     0.80E-01   15.1     0.00025622      -779.7424011215 -1.32E-02
    37 OT DIIS     0.80E-01   16.0     0.00023977      -779.7604995600 -1.81E-02
    38 OT DIIS     0.80E-01   15.8     0.00022869      -779.7720260685 -1.15E-02
    39 OT DIIS     0.80E-01   14.7     0.00021879      -779.7812711217 -9.25E-03
    40 OT DIIS     0.80E-01   14.2     0.00020344      -779.7967718813 -1.55E-02
    41 OT DIIS     0.80E-01   13.6     0.00019276      -779.8075862556 -1.08E-02
    42 OT DIIS     0.80E-01   13.9     0.00018558      -779.8145647783 -6.98E-03
    43 OT DIIS     0.80E-01   14.1     0.00017716      -779.8223631225 -7.80E-03
    44 OT DIIS     0.80E-01   13.5     0.00016781      -779.8324200912 -1.01E-02
    45 OT DIIS     0.80E-01   12.9     0.00016055      -779.8391572620 -6.74E-03
    46 OT DIIS     0.80E-01   15.2     0.00015527      -779.8443062906 -5.15E-03
    47 OT DIIS     0.80E-01   15.5     0.00014817      -779.8517070257 -7.40E-03
    48 OT DIIS     0.80E-01   15.0     0.00014158      -779.8592558220 -7.55E-03
    49 OT DIIS     0.80E-01   15.2     0.00013792      -779.8631232862 -3.87E-03
    50 OT DIIS     0.80E-01   15.2     0.00013335      -779.8670384307 -3.92E-03
    51 OT DIIS     0.80E-01   14.7     0.00012693      -779.8743519655 -7.31E-03
    52 OT DIIS     0.80E-01   14.3     0.00012195      -779.8790148448 -4.66E-03
    53 OT DIIS     0.80E-01   14.3     0.00011825      -779.8823467764 -3.33E-03
    54 OT DIIS     0.80E-01   13.6     0.00011243      -779.8875595088 -5.21E-03
    55 OT DIIS     0.80E-01   13.7     0.00010730      -779.8925227923 -4.96E-03
    56 OT DIIS     0.80E-01   15.1     0.00010462      -779.8949480076 -2.43E-03
    57 OT DIIS     0.80E-01   16.2     0.00010019      -779.8984586518 -3.51E-03
    58 OT DIIS     0.80E-01   15.6     0.00009601      -779.9021314443 -3.67E-03
    59 OT DIIS     0.80E-01   13.8     0.00009265      -779.9047826990 -2.65E-03
    60 OT DIIS     0.80E-01   14.0     0.00008985      -779.9075763420 -2.79E-03
    61 OT DIIS     0.80E-01   13.5     0.00008761      -779.9097803517 -2.20E-03
    62 OT DIIS     0.80E-01   14.6     0.00008508      -779.9126771197 -2.90E-03
    63 OT DIIS     0.80E-01   15.8     0.00008301      -779.9148066189 -2.13E-03
    64 OT DIIS     0.80E-01   12.8     0.00008137      -779.9163322546 -1.53E-03
    65 OT DIIS     0.80E-01   14.3     0.00007854      -779.9195475451 -3.22E-03
    66 OT DIIS     0.80E-01   16.7     0.00007608      -779.9217377338 -2.19E-03
    67 OT DIIS     0.80E-01   16.0     0.00007380      -779.9238600274 -2.12E-03
    68 OT DIIS     0.80E-01   14.1     0.00007127      -779.9262709058 -2.41E-03
    69 OT DIIS     0.80E-01   15.9     0.00006951      -779.9284111077 -2.14E-03
    70 OT DIIS     0.80E-01   16.9     0.00006816      -779.9295962892 -1.19E-03
    71 OT DIIS     0.80E-01   15.2     0.00006641      -779.9308413101 -1.25E-03
    72 OT DIIS     0.80E-01   17.4     0.00006372      -779.9336334882 -2.79E-03
    73 OT DIIS     0.80E-01   15.1     0.00006161      -779.9354257375 -1.79E-03
    74 OT DIIS     0.80E-01   14.4     0.00005995      -779.9364693852 -1.04E-03
    75 OT DIIS     0.80E-01   14.9     0.00005652      -779.9388628385 -2.39E-03
    76 OT DIIS     0.80E-01   15.0     0.00005444      -779.9403223546 -1.46E-03
    77 OT DIIS     0.80E-01   14.4     0.00005335      -779.9410567113 -7.34E-04
    78 OT DIIS     0.80E-01   14.8     0.00005155      -779.9421877791 -1.13E-03
    79 OT DIIS     0.80E-01   14.8     0.00005064      -779.9425776786 -3.90E-04
    80 OT DIIS     0.80E-01   13.0     0.00004938      -779.9433084379 -7.31E-04
    81 OT DIIS     0.80E-01   14.1     0.00004783      -779.9447555861 -1.45E-03
    82 OT DIIS     0.80E-01   16.1     0.00004708      -779.9451556320 -4.00E-04
    83 OT DIIS     0.80E-01   14.5     0.00004569      -779.9463809959 -1.23E-03
    84 OT DIIS     0.80E-01   17.3     0.00004486      -779.9470360339 -6.55E-04
    85 OT DIIS     0.80E-01   12.3     0.00004359      -779.9479495779 -9.14E-04
    86 OT DIIS     0.80E-01   15.8     0.00004229      -779.9487493986 -8.00E-04
    87 OT DIIS     0.80E-01   15.8     0.00004105      -779.9495819958 -8.33E-04
    88 OT DIIS     0.80E-01   14.3     0.00003964      -779.9503739648 -7.92E-04
    89 OT DIIS     0.80E-01   14.2     0.00003898      -779.9509430595 -5.69E-04
    90 OT DIIS     0.80E-01   13.7     0.00003836      -779.9514801544 -5.37E-04
    91 OT DIIS     0.80E-01   11.1     0.00003775      -779.9519721911 -4.92E-04
    92 OT DIIS     0.80E-01   12.8     0.00003713      -779.9525894812 -6.17E-04
    93 OT DIIS     0.80E-01   17.3     0.00003647      -779.9533954841 -8.06E-04
    94 OT DIIS     0.80E-01   16.0     0.00003567      -779.9540612618 -6.66E-04
    95 OT DIIS     0.80E-01   16.4     0.00003468      -779.9550531956 -9.92E-04
    96 OT DIIS     0.80E-01   13.5     0.00003336      -779.9562643086 -1.21E-03
    97 OT DIIS     0.80E-01   14.4     0.00003278      -779.9567858270 -5.22E-04
    98 OT DIIS     0.80E-01   15.9     0.00003226      -779.9572165943 -4.31E-04
    99 OT DIIS     0.80E-01   16.6     0.00003155      -779.9578975218 -6.81E-04
   100 OT DIIS     0.80E-01   14.2     0.00003109      -779.9584787009 -5.81E-04
   101 OT DIIS     0.80E-01   15.5     0.00003073      -779.9588427472 -3.64E-04
   102 OT DIIS     0.80E-01   15.9     0.00003030      -779.9593693273 -5.27E-04
   103 OT DIIS     0.80E-01   14.6     0.00002976      -779.9601163265 -7.47E-04
   104 OT DIIS     0.80E-01   14.2     0.00002928      -779.9606562110 -5.40E-04
   105 OT DIIS     0.80E-01   15.5     0.00002860      -779.9607947713 -1.39E-04
   106 OT DIIS     0.80E-01   14.5     0.00002851      -779.9616802116 -8.85E-04
   107 OT DIIS     0.80E-01   13.9     0.00002699      -779.9623052178 -6.25E-04
   108 OT DIIS     0.80E-01   11.6     0.00002623      -779.9626938174 -3.89E-04
   109 OT DIIS     0.80E-01   14.1     0.00002524      -779.9632235159 -5.30E-04
   110 OT DIIS     0.80E-01   13.0     0.00002465      -779.9636478409 -4.24E-04
   111 OT DIIS     0.80E-01   12.9     0.00002413      -779.9639405764 -2.93E-04
   112 OT DIIS     0.80E-01   12.8     0.00002385      -779.9641127457 -1.72E-04
   113 OT DIIS     0.80E-01   12.7     0.00002351      -779.9642146514 -1.02E-04
   114 OT DIIS     0.80E-01   11.6     0.00002298      -779.9644301531 -2.16E-04
   115 OT DIIS     0.80E-01   10.5     0.00002255      -779.9646358946 -2.06E-04
   116 OT DIIS     0.80E-01   13.3     0.00002209      -779.9648229530 -1.87E-04
   117 OT DIIS     0.80E-01   13.0     0.00002178      -779.9649900129 -1.67E-04
   118 OT DIIS     0.80E-01   12.7     0.00002153      -779.9651583432 -1.68E-04
   119 OT DIIS     0.80E-01   15.0     0.00002120      -779.9653426499 -1.84E-04
   120 OT DIIS     0.80E-01   13.8     0.00002098      -779.9654909904 -1.48E-04

  Leaving inner SCF loop after reaching   120 steps.


  Electronic density on regular grids:       -538.0000000000        0.0000000000
  Core density on regular grids:              537.9999999988       -0.0000000012
  Total charge density on r-space grids:       -0.0000000012
  Total charge density g-space grids:          -0.0000000012

  Overlap energy of the core charge distribution:               0.00104823793137
  Self energy of the core charge distribution:              -1670.29475011632690
  Core Hamiltonian energy:                                    363.81449189259712
  Hartree energy:                                             697.75584817596200
  Exchange-correlation energy:                               -171.00333875178984
  Dispersion energy:                                           -0.23879042875196

  Total energy:                                              -779.96549099037827

 *** WARNING in qs_scf.F:609 :: SCF run NOT converged ***


 ENERGY| Total FORCE_EVAL ( QS ) energy [hartree]           -779.965873396647680

 MD_INI| MD initialization
 MD_INI| Potential energy [hartree]                          -0.779965873397E+03
 MD_INI| Kinetic energy [hartree]                             0.135381355926E+00
 MD_INI| Temperature [K]                                              300.000000
 MD_INI| Cell volume [bohr^3]                                 5.398667666472E+04
 MD_INI| Cell volume [ang^3]                                  8.000000000000E+03
 MD_INI| Cell lengths [bohr]      3.77945227E+01  3.77945227E+01  3.77945227E+01
 MD_INI| Cell lengths [ang]       2.00000000E+01  2.00000000E+01  2.00000000E+01
 MD_INI| Cell angles [deg]        9.00000000E+01  9.00000000E+01  9.00000000E+01

 Number of electrons:                                                        538
 Number of occupied orbitals:                                                269
 Number of molecular orbitals:                                               269

 Number of orbital functions:                                               1248
 Number of independent orbital functions:                                   1248

 Extrapolation method: ASPC


 SCF WAVEFUNCTION OPTIMIZATION

  ----------------------------------- OT ---------------------------------------
  Minimizer      : DIIS                : direct inversion
                                         in the iterative subspace
                                         using   7 DIIS vectors
                                         safer DIIS on
  Preconditioner : FULL_SINGLE_INVERSE : inversion of 
                                         H + eS - 2*(Sc)(c^T*H*c+const)(Sc)^T
  Precond_solver : DEFAULT
  stepsize       :    0.08000000                  energy_gap     :    0.08000000
  eps_taylor     :   0.10000E-15                  max_taylor     :             4
  ----------------------------------- OT ---------------------------------------

  Step     Update method      Time    Convergence         Total energy    Change
  ------------------------------------------------------------------------------
     1 OT DIIS     0.80E-01   13.2     0.00016361      -779.9645061341 -7.80E+02
     2 OT DIIS     0.80E-01   12.3     0.00013679      -779.9651092362 -6.03E-04
     3 OT DIIS     0.80E-01   13.7     0.00013050      -779.9655266723 -4.17E-04
     4 OT DIIS     0.80E-01   14.5     0.00013457      -779.9660205080 -4.94E-04
     5 OT DIIS     0.80E-01   13.3     0.00010747      -779.9667120810 -6.92E-04
     6 OT DIIS     0.80E-01   12.5     0.00009763      -779.9671523583 -4.40E-04
     7 OT DIIS     0.80E-01   14.7     0.00009087      -779.9675873924 -4.35E-04
     8 OT DIIS     0.80E-01   13.1     0.00008687      -779.9680715018 -4.84E-04
     9 OT DIIS     0.80E-01   13.9     0.00008302      -779.9685497140 -4.78E-04
    10 OT DIIS     0.80E-01   14.6     0.00007744      -779.9690366863 -4.87E-04
    11 OT DIIS     0.80E-01   16.1     0.00007567      -779.9695055763 -4.69E-04
    12 OT DIIS     0.80E-01   15.9     0.00007449      -779.9698629928 -3.57E-04
    13 OT DIIS     0.80E-01   15.3     0.00007302      -779.9702620314 -3.99E-04
    14 OT DIIS     0.80E-01   14.6     0.00007053      -779.9706852784 -4.23E-04
    15 OT DIIS     0.80E-01   15.3     0.00006700      -779.9710399798 -3.55E-04
    16 OT DIIS     0.80E-01   15.2     0.00006467      -779.9715074589 -4.67E-04
    17 OT DIIS     0.80E-01   14.4     0.00006252      -779.9718881147 -3.81E-04
    18 OT DIIS     0.80E-01   14.5     0.00006040      -779.9722299320 -3.42E-04
    19 OT DIIS     0.80E-01   13.8     0.00005871      -779.9726991725 -4.69E-04
    20 OT DIIS     0.80E-01   13.4     0.00006226      -779.9729224001 -2.23E-04
    21 OT DIIS     0.80E-01   14.6     0.00005809      -779.9733291963 -4.07E-04
    22 OT DIIS     0.80E-01   15.0     0.00005541      -779.9736292678 -3.00E-04
    23 OT DIIS     0.80E-01   15.1     0.00005342      -779.9737944289 -1.65E-04
    24 OT DIIS     0.80E-01   15.2     0.00005015      -779.9740716145 -2.77E-04
    25 OT DIIS     0.80E-01   12.5     0.00005136      -779.9743353684 -2.64E-04
    26 OT DIIS     0.80E-01   15.5     0.00004866      -779.9746142340 -2.79E-04
    27 OT DIIS     0.80E-01   13.4     0.00004770      -779.9748684481 -2.54E-04
    28 OT SD       0.80E-01   14.7     0.00004641      -779.9749958537 -1.27E-04
    29 OT DIIS     0.80E-01   14.4     0.00004974      -779.9750451802 -4.93E-05
    30 OT DIIS     0.80E-01   12.0     0.00004356      -779.9751294055 -8.42E-05
    31 OT DIIS     0.80E-01   10.9     0.00004363      -779.9753300528 -2.01E-04
    32 OT DIIS     0.80E-01   11.6     0.00004236      -779.9755080405 -1.78E-04
    33 OT DIIS     0.80E-01   14.1     0.00004371      -779.9758662417 -3.58E-04
    34 OT DIIS     0.80E-01   15.0     0.00004208      -779.9760552946 -1.89E-04
    35 OT DIIS     0.80E-01   12.1     0.00003752      -779.9761644218 -1.09E-04
    36 OT DIIS     0.80E-01   14.7     0.00003483      -779.9763014460 -1.37E-04
    37 OT DIIS     0.80E-01   12.9     0.00003673      -779.9764098659 -1.08E-04
    38 OT DIIS     0.80E-01   14.7     0.00003634      -779.9764644897 -5.46E-05
    39 OT DIIS     0.80E-01   12.8     0.00003408      -779.9766081677 -1.44E-04
    40 OT DIIS     0.80E-01   12.9     0.00003510      -779.9768213444 -2.13E-04
    41 OT DIIS     0.80E-01   14.2     0.00003192      -779.9769152957 -9.40E-05
    42 OT DIIS     0.80E-01   13.5     0.00002868      -779.9770215270 -1.06E-04
    43 OT DIIS     0.80E-01   13.4     0.00002949      -779.9770267477 -5.22E-06
    44 OT DIIS     0.80E-01   15.2     0.00002833      -779.9771364492 -1.10E-04
    45 OT DIIS     0.80E-01   14.0     0.00003463      -779.9772268784 -9.04E-05
    46 OT DIIS     0.80E-01   14.6     0.00002886      -779.9772650405 -3.82E-05
    47 OT DIIS     0.80E-01   14.3     0.00002770      -779.9774431931 -1.78E-04
    48 OT DIIS     0.80E-01   13.1     0.00002644      -779.9774929768 -4.98E-05
    49 OT DIIS     0.80E-01   13.9     0.00002402      -779.9775289035 -3.59E-05
    50 OT DIIS     0.80E-01   16.7     0.00002304      -779.9775602224 -3.13E-05
    51 OT DIIS     0.80E-01   14.9     0.00002344      -779.9776061892 -4.60E-05
    52 OT DIIS     0.80E-01   16.1     0.00002300      -779.9776528491 -4.67E-05
    53 OT DIIS     0.80E-01   13.8     0.00002357      -779.9777269895 -7.41E-05
    54 OT DIIS     0.80E-01   12.4     0.00002271      -779.9777574655 -3.05E-05
    55 OT DIIS     0.80E-01   12.9     0.00002173      -779.9778266864 -6.92E-05
    56 OT DIIS     0.80E-01   14.8     0.00002122      -779.9778582274 -3.15E-05
    57 OT DIIS     0.80E-01   13.9     0.00002110      -779.9778742256 -1.60E-05
    58 OT DIIS     0.80E-01   14.5     0.00002055      -779.9779095769 -3.54E-05
    59 OT SD       0.80E-01   14.2     0.00002142      -779.9780005359 -9.10E-05
    60 OT DIIS     0.80E-01   12.3     0.00002992      -779.9780089011 -8.37E-06
    61 OT DIIS     0.80E-01   14.1     0.00001931      -779.9780882278 -7.93E-05
    62 OT DIIS     0.80E-01   13.7     0.00001939      -779.9781094339 -2.12E-05
    63 OT DIIS     0.80E-01   13.0     0.00001922      -779.9781193850 -9.95E-06
    64 OT DIIS     0.80E-01   14.8     0.00001875      -779.9781565770 -3.72E-05
    65 OT DIIS     0.80E-01   12.7     0.00001887      -779.9781820024 -2.54E-05
    66 OT DIIS     0.80E-01   15.0     0.00001855      -779.9782018342 -1.98E-05
    67 OT DIIS     0.80E-01   15.0     0.00001828      -779.9782680649 -6.62E-05
    68 OT DIIS     0.80E-01   14.7     0.00001833      -779.9782862252 -1.82E-05
    69 OT DIIS     0.80E-01   12.2     0.00001818      -779.9783249264 -3.87E-05
    70 OT DIIS     0.80E-01   13.9     0.00001817      -779.9783824229 -5.75E-05
    71 OT DIIS     0.80E-01   15.3     0.00001855      -779.9784195452 -3.71E-05
    72 OT DIIS     0.80E-01   16.3     0.00001844      -779.9784960428 -7.65E-05
    73 OT DIIS     0.80E-01   12.5     0.00001824      -779.9785497257 -5.37E-05
    74 OT DIIS     0.80E-01   13.7     0.00001806      -779.9785665508 -1.68E-05
    75 OT DIIS     0.80E-01   14.7     0.00001726      -779.9786225749 -5.60E-05
    76 OT DIIS     0.80E-01   17.9     0.00001771      -779.9786341796 -1.16E-05
    77 OT DIIS     0.80E-01   13.3     0.00001749      -779.9786942092 -6.00E-05
    78 OT DIIS     0.80E-01   14.7     0.00001722      -779.9787635004 -6.93E-05
    79 OT DIIS     0.80E-01   16.7     0.00001720      -779.9787930143 -2.95E-05
    80 OT DIIS     0.80E-01   15.6     0.00001665      -779.9788192076 -2.62E-05
    81 OT DIIS     0.80E-01   16.4     0.00001659      -779.9788510361 -3.18E-05
    82 OT DIIS     0.80E-01   12.2     0.00001662      -779.9788633651 -1.23E-05
    83 OT DIIS     0.80E-01   15.1     0.00001662      -779.9788881091 -2.47E-05
    84 OT DIIS     0.80E-01   12.8     0.00001654      -779.9788910741 -2.96E-06
    85 OT DIIS     0.80E-01   14.8     0.00001634      -779.9789307135 -3.96E-05
    86 OT DIIS     0.80E-01   16.6     0.00001629      -779.9789785421 -4.78E-05
    87 OT DIIS     0.80E-01   15.7     0.00001620      -779.9789911176 -1.26E-05
    88 OT DIIS     0.80E-01   17.0     0.00001613      -779.9790087395 -1.76E-05
    89 OT DIIS     0.80E-01   16.0     0.00001611      -779.9790353215 -2.66E-05
    90 OT DIIS     0.80E-01   13.6     0.00001613      -779.9790728753 -3.76E-05
    91 OT DIIS     0.80E-01   15.7     0.00001617      -779.9791430683 -7.02E-05
    92 OT DIIS     0.80E-01   14.7     0.00001614      -779.9791864966 -4.34E-05
    93 OT DIIS     0.80E-01   14.6     0.00001609      -779.9792087540 -2.23E-05
    94 OT DIIS     0.80E-01   14.1     0.00001734      -779.9792570355 -4.83E-05
    95 OT SD       0.80E-01   13.9     0.00001620      -779.9792674078 -1.04E-05
    96 OT DIIS     0.80E-01   14.7     0.00001760      -779.9792739717 -6.56E-06
    97 OT DIIS     0.80E-01   16.8     0.00001590      -779.9793176616 -4.37E-05
    98 OT DIIS     0.80E-01   15.8     0.00001601      -779.9793705746 -5.29E-05
    99 OT DIIS     0.80E-01   15.0     0.00001589      -779.9794098148 -3.92E-05
   100 OT DIIS     0.80E-01   14.6     0.00001578      -779.9794418172 -3.20E-05
   101 OT DIIS     0.80E-01   12.9     0.00001575      -779.9794659105 -2.41E-05
   102 OT DIIS     0.80E-01   12.6     0.00001566      -779.9794937525 -2.78E-05
   103 OT DIIS     0.80E-01   17.7     0.00001569      -779.9795282748 -3.45E-05
   104 OT DIIS     0.80E-01   16.4     0.00001658      -779.9795600287 -3.18E-05
   105 OT DIIS     0.80E-01   15.5     0.00001566      -779.9795891773 -2.91E-05
   106 OT DIIS     0.80E-01   15.7     0.00001639      -779.9796782635 -8.91E-05
   107 OT DIIS     0.80E-01   14.1     0.00001610      -779.9797118955 -3.36E-05
   108 OT DIIS     0.80E-01   13.6     0.00001548      -779.9797297946 -1.79E-05
   109 OT DIIS     0.80E-01   14.8     0.00001536      -779.9797474101 -1.76E-05
   110 OT DIIS     0.80E-01   13.5     0.00001539      -779.9797553625 -7.95E-06
   111 OT DIIS     0.80E-01   13.6     0.00001533      -779.9797698364 -1.45E-05
   112 OT DIIS     0.80E-01   13.4     0.00001534      -779.9798094881 -3.97E-05
   113 OT DIIS     0.80E-01   12.8     0.00001533      -779.9798492073 -3.97E-05
   114 OT DIIS     0.80E-01   15.8     0.00001811      -779.9800056052 -1.56E-04
   115 OT SD       0.80E-01   22.8     0.00001855      -779.9800504776 -4.49E-05
   116 OT SD       0.80E-01   19.6     0.00002534      -779.9800553099 -4.83E-06
   117 OT DIIS     0.80E-01   16.3     0.00004935      -779.9800540195  1.29E-06
   118 OT DIIS     0.80E-01   17.9     0.00001502      -779.9801064971 -5.25E-05
   119 OT DIIS     0.80E-01   15.7     0.00002100      -779.9802398049 -1.33E-04
   120 OT DIIS     0.80E-01   18.5     0.00001682      -779.9803096409 -6.98E-05

  Leaving inner SCF loop after reaching   120 steps.


  Electronic density on regular grids:       -538.0000000000        0.0000000000
  Core density on regular grids:              537.9999999988       -0.0000000012
  Total charge density on r-space grids:       -0.0000000012
  Total charge density g-space grids:          -0.0000000012

  Overlap energy of the core charge distribution:               0.00105369146949
  Self energy of the core charge distribution:              -1670.29475011632690
  Core Hamiltonian energy:                                    363.75107058373356
  Hartree energy:                                             697.79172697440379
  Exchange-correlation energy:                               -170.99063475505363
  Dispersion energy:                                           -0.23877601914657

  Total energy:                                              -779.98030964092038

 *** WARNING in qs_scf.F:609 :: SCF run NOT converged ***


 ENERGY| Total FORCE_EVAL ( QS ) energy [hartree]           -779.980447016967787

 MD| ***************************************************************************
 MD| Step number                                                               1
 MD| Time [fs]                                                          0.500000
 MD| Conserved quantity [hartree]                            -0.779846411484E+03
 MD| ---------------------------------------------------------------------------
 MD|                                          Instantaneous             Averages
 MD| CPU time per MD step [s]                   3605.414560          3605.414560
 MD| Energy drift per atom [K]          -0.523641295883E+02   0.000000000000E+00
 MD| Potential energy [hartree]         -0.779980447017E+03  -0.779980447017E+03
 MD| Kinetic energy [hartree]            0.134258181864E+00   0.134258181864E+00
 MD| Temperature [K]                             297.511088           297.511088
 MD| ***************************************************************************

 Number of electrons:                                                        538
 Number of occupied orbitals:                                                269
 Number of molecular orbitals:                                               269

 Number of orbital functions:                                               1248
 Number of independent orbital functions:                                   1248

 Extrapolation method: ASPC


 SCF WAVEFUNCTION OPTIMIZATION

  ----------------------------------- OT ---------------------------------------
  Minimizer      : DIIS                : direct inversion
                                         in the iterative subspace
                                         using   7 DIIS vectors
                                         safer DIIS on
  Preconditioner : FULL_SINGLE_INVERSE : inversion of 
                                         H + eS - 2*(Sc)(c^T*H*c+const)(Sc)^T
  Precond_solver : DEFAULT
  stepsize       :    0.08000000                  energy_gap     :    0.08000000
  eps_taylor     :   0.10000E-15                  max_taylor     :             4
  ----------------------------------- OT ---------------------------------------

  Step     Update method      Time    Convergence         Total energy    Change
  ------------------------------------------------------------------------------
     1 OT DIIS     0.80E-01   22.2     0.00143083      -779.9766136781 -7.80E+02
     2 OT DIIS     0.80E-01   14.1     0.00262193      -779.9622227963  1.44E-02
     3 OT DIIS     0.80E-01   14.7     0.00067845      -779.9887765646 -2.66E-02
     4 OT DIIS     0.80E-01   15.0     0.00024203      -779.9907464205 -1.97E-03
     5 OT DIIS     0.80E-01   14.2     0.00015694      -779.9912899632 -5.44E-04
     6 OT DIIS     0.80E-01   14.3     0.00013102      -779.9917432873 -4.53E-04
     7 OT DIIS     0.80E-01   14.0     0.00011953      -779.9923244057 -5.81E-04
     8 OT DIIS     0.80E-01   14.1     0.00009723      -779.9929996117 -6.75E-04
     9 OT DIIS     0.80E-01   15.8     0.00008297      -779.9934409819 -4.41E-04
    10 OT DIIS     0.80E-01   12.6     0.00007581      -779.9937971060 -3.56E-04
    11 OT DIIS     0.80E-01   13.7     0.00007566      -779.9940530630 -2.56E-04
    12 OT DIIS     0.80E-01   14.0     0.00007112      -779.9942750325 -2.22E-04
    13 OT DIIS     0.80E-01   16.1     0.00006101      -779.9944912064 -2.16E-04
    14 OT DIIS     0.80E-01   13.5     0.00005584      -779.9946674836 -1.76E-04
    15 OT DIIS     0.80E-01   15.6     0.00005276      -779.9948337165 -1.66E-04
    16 OT DIIS     0.80E-01   14.5     0.00004924      -779.9949861648 -1.52E-04
    17 OT DIIS     0.80E-01   15.6     0.00004644      -779.9951347395 -1.49E-04
    18 OT DIIS     0.80E-01   11.5     0.00004401      -779.9952907084 -1.56E-04
    19 OT DIIS     0.80E-01   14.1     0.00004311      -779.9954141937 -1.23E-04
    20 OT DIIS     0.80E-01   15.6     0.00004246      -779.9955310195 -1.17E-04
    21 OT DIIS     0.80E-01   15.9     0.00004000      -779.9956402858 -1.09E-04
    22 OT DIIS     0.80E-01   14.8     0.00003745      -779.9957632610 -1.23E-04
    23 OT DIIS     0.80E-01   16.5     0.00003621      -779.9958923885 -1.29E-04
    24 OT DIIS     0.80E-01   15.6     0.00003395      -779.9959901650 -9.78E-05
    25 OT DIIS     0.80E-01   16.4     0.00003190      -779.9960830575 -9.29E-05
    26 OT DIIS     0.80E-01   16.4     0.00003016      -779.9961647430 -8.17E-05
    27 OT DIIS     0.80E-01   16.5     0.00002952      -779.9962349612 -7.02E-05
    28 OT DIIS     0.80E-01   16.2     0.00002923      -779.9963013388 -6.64E-05
    29 OT DIIS     0.80E-01   15.8     0.00002818      -779.9963578017 -5.65E-05
    30 OT DIIS     0.80E-01   16.2     0.00002615      -779.9964181743 -6.04E-05
    31 OT DIIS     0.80E-01   17.8     0.00002512      -779.9964763308 -5.82E-05
    32 OT DIIS     0.80E-01   16.4     0.00002395      -779.9965177336 -4.14E-05
    33 OT DIIS     0.80E-01   15.5     0.00002280      -779.9965587849 -4.11E-05
    34 OT DIIS     0.80E-01   18.4     0.00002188      -779.9965968310 -3.80E-05
    35 OT DIIS     0.80E-01   17.2     0.00002147      -779.9966305794 -3.37E-05
    36 OT DIIS     0.80E-01   17.0     0.00002107      -779.9966616658 -3.11E-05
    37 OT DIIS     0.80E-01   14.7     0.00002042      -779.9966870889 -2.54E-05
    38 OT DIIS     0.80E-01   14.2     0.00001927      -779.9967117498 -2.47E-05
    39 OT DIIS     0.80E-01   16.9     0.00001873      -779.9967383877 -2.66E-05
    40 OT DIIS     0.80E-01   16.5     0.00001820      -779.9967598018 -2.14E-05
    41 OT DIIS     0.80E-01   14.7     0.00001755      -779.9967820460 -2.22E-05
    42 OT DIIS     0.80E-01   16.7     0.00001691      -779.9968041459 -2.21E-05
    43 OT DIIS     0.80E-01   15.1     0.00001653      -779.9968218011 -1.77E-05
    44 OT DIIS     0.80E-01   15.7     0.00001618      -779.9968389227 -1.71E-05
    45 OT DIIS     0.80E-01   16.7     0.00001583      -779.9968529654 -1.40E-05
    46 OT DIIS     0.80E-01   16.3     0.00001520      -779.9968675360 -1.46E-05
    47 OT DIIS     0.80E-01   13.0     0.00001480      -779.9968838236 -1.63E-05
    48 OT DIIS     0.80E-01   13.7     0.00001451      -779.9968987307 -1.49E-05
    49 OT DIIS     0.80E-01   12.3     0.00001400      -779.9969118263 -1.31E-05
    50 OT DIIS     0.80E-01   13.5     0.00001354      -779.9969259945 -1.42E-05
    51 OT DIIS     0.80E-01   14.1     0.00001323      -779.9969358437 -9.85E-06
    52 OT DIIS     0.80E-01   13.8     0.00001301      -779.9969470038 -1.12E-05
    53 OT DIIS     0.80E-01   15.6     0.00001283      -779.9969560956 -9.09E-06
    54 OT DIIS     0.80E-01   15.6     0.00001237      -779.9969657127 -9.62E-06
    55 OT DIIS     0.80E-01   13.4     0.00001206      -779.9969758520 -1.01E-05
    56 OT DIIS     0.80E-01   15.6     0.00001186      -779.9969861996 -1.03E-05
    57 OT DIIS     0.80E-01   15.0     0.00001153      -779.9969939043 -7.70E-06
    58 OT DIIS     0.80E-01   16.1     0.00001126      -779.9970041036 -1.02E-05
    59 OT DIIS     0.80E-01   14.4     0.00001108      -779.9970108701 -6.77E-06
    60 OT DIIS     0.80E-01   14.6     0.00001093      -779.9970197278 -8.86E-06
    61 OT DIIS     0.80E-01   16.1     0.00001078      -779.9970270482 -7.32E-06
    62 OT DIIS     0.80E-01   17.7     0.00001045      -779.9970341873 -7.14E-06
    63 OT DIIS     0.80E-01   16.5     0.00001018      -779.9970413661 -7.18E-06
    64 OT DIIS     0.80E-01   16.9     0.00001006      -779.9970498386 -8.47E-06
    65 OT DIIS     0.80E-01   16.0     0.00000987      -779.9970556971 -5.86E-06
    66 OT DIIS     0.80E-01   15.1     0.00000968      -779.9970650783 -9.38E-06
    67 OT DIIS     0.80E-01   14.1     0.00000953      -779.9970709487 -5.87E-06
    68 OT DIIS     0.80E-01   14.6     0.00000941      -779.9970788584 -7.91E-06
    69 OT DIIS     0.80E-01   17.4     0.00000927      -779.9970852243 -6.37E-06
    70 OT DIIS     0.80E-01   15.2     0.00000901      -779.9970910541 -5.83E-06
    71 OT DIIS     0.80E-01   16.9     0.00000881      -779.9970968608 -5.81E-06
    72 OT DIIS     0.80E-01   14.1     0.00000873      -779.9971051340 -8.27E-06
    73 OT DIIS     0.80E-01   13.4     0.00000859      -779.9971100393 -4.91E-06
    74 OT DIIS     0.80E-01   15.9     0.00000842      -779.9971187853 -8.75E-06
    75 OT DIIS     0.80E-01   16.9     0.00000824      -779.9971236066 -4.82E-06
    76 OT DIIS     0.80E-01   17.3     0.00000814      -779.9971301716 -6.56E-06
    77 OT DIIS     0.80E-01   16.0     0.00000806      -779.9971355958 -5.42E-06
    78 OT DIIS     0.80E-01   13.5     0.00000789      -779.9971405967 -5.00E-06
    79 OT DIIS     0.80E-01   14.7     0.00000771      -779.9971458594 -5.26E-06
    80 OT DIIS     0.80E-01   15.3     0.00000764      -779.9971537484 -7.89E-06
    81 OT DIIS     0.80E-01   15.8     0.00000746      -779.9971573866 -3.64E-06
    82 OT DIIS     0.80E-01   15.4     0.00000730      -779.9971644012 -7.01E-06
    83 OT DIIS     0.80E-01   16.0     0.00000717      -779.9971674180 -3.02E-06
    84 OT DIIS     0.80E-01   14.6     0.00000711      -779.9971735750 -6.16E-06
    85 OT DIIS     0.80E-01   15.7     0.00000710      -779.9971784059 -4.83E-06
    86 OT DIIS     0.80E-01   14.8     0.00000690      -779.9971825430 -4.14E-06
    87 OT DIIS     0.80E-01   15.2     0.00000671      -779.9971863785 -3.84E-06
    88 OT DIIS     0.80E-01   15.0     0.00000657      -779.9971918636 -5.49E-06
    89 OT DIIS     0.80E-01   15.5     0.00000655      -779.9971941589 -2.30E-06
    90 OT DIIS     0.80E-01   13.0     0.00000641      -779.9972001880 -6.03E-06
    91 OT DIIS     0.80E-01   13.3     0.00000626      -779.9972030127 -2.82E-06
    92 OT DIIS     0.80E-01   14.0     0.00000622      -779.9972072401 -4.23E-06
    93 OT DIIS     0.80E-01   15.1     0.00000610      -779.9972104191 -3.18E-06
    94 OT DIIS     0.80E-01   14.5     0.00000597      -779.9972127513 -2.33E-06
    95 OT DIIS     0.80E-01   16.5     0.00000584      -779.9972153617 -2.61E-06
    96 OT DIIS     0.80E-01   14.0     0.00000582      -779.9972196853 -4.32E-06
    97 OT DIIS     0.80E-01   14.7     0.00000574      -779.9972221531 -2.47E-06
    98 OT DIIS     0.80E-01   15.5     0.00000560      -779.9972254162 -3.26E-06
    99 OT DIIS     0.80E-01   16.0     0.00000546      -779.9972275417 -2.13E-06
   100 OT DIIS     0.80E-01   15.1     0.00000531      -779.9972295602 -2.02E-06
   101 OT DIIS     0.80E-01   14.1     0.00000536      -779.9972321085 -2.55E-06
   102 OT DIIS     0.80E-01   16.0     0.00000527      -779.9972343764 -2.27E-06
   103 OT DIIS     0.80E-01   15.7     0.00000522      -779.9972378683 -3.49E-06
   104 OT DIIS     0.80E-01   14.0     0.00000516      -779.9972394616 -1.59E-06
   105 OT DIIS     0.80E-01   14.9     0.00000484      -779.9972423193 -2.86E-06
   106 OT DIIS     0.80E-01   13.0     0.00000467      -779.9972437277 -1.41E-06
   107 OT DIIS     0.80E-01   14.6     0.00000454      -779.9972457115 -1.98E-06
   108 OT DIIS     0.80E-01   14.3     0.00000465      -779.9972477960 -2.08E-06
   109 OT DIIS     0.80E-01   13.3     0.00000454      -779.9972498185 -2.02E-06
   110 OT DIIS     0.80E-01   13.8     0.00000433      -779.9972540589 -4.24E-06
   111 OT DIIS     0.80E-01   14.5     0.00000392      -779.9972569681 -2.91E-06
   112 OT DIIS     0.80E-01   14.3     0.00000445      -779.9972588365 -1.87E-06
   113 OT DIIS     0.80E-01   15.7     0.00000372      -779.9972590486 -2.12E-07
   114 OT DIIS     0.80E-01   15.8     0.00000361      -779.9972608593 -1.81E-06
   115 OT DIIS     0.80E-01   15.9     0.00000352      -779.9972632369 -2.38E-06
   116 OT DIIS     0.80E-01   14.5     0.00000348      -779.9972662105 -2.97E-06
   117 OT DIIS     0.80E-01   15.9     0.00000329      -779.9972662654 -5.49E-08
   118 OT DIIS     0.80E-01   14.6     0.00000295      -779.9972677856 -1.52E-06
   119 OT DIIS     0.80E-01   14.2     0.00000288      -779.9972686919 -9.06E-07
   120 OT SD       0.80E-01   14.0     0.00000287      -779.9972704689 -1.78E-06

  Leaving inner SCF loop after reaching   120 steps.


  Electronic density on regular grids:       -538.0000000000        0.0000000000
  Core density on regular grids:              537.9999999988       -0.0000000012
  Total charge density on r-space grids:       -0.0000000012
  Total charge density g-space grids:          -0.0000000012

  Overlap energy of the core charge distribution:               0.00101979381435
  Self energy of the core charge distribution:              -1670.29475011632690
  Core Hamiltonian energy:                                    363.72435338711773
  Hartree energy:                                             697.79713084619220
  Exchange-correlation energy:                               -170.98626266572924
  Dispersion energy:                                           -0.23876171397906

  Total energy:                                              -779.99727046891087

 *** WARNING in qs_scf.F:609 :: SCF run NOT converged ***


 ENERGY| Total FORCE_EVAL ( QS ) energy [hartree]           -779.997270594958991

 MD| ***************************************************************************
 MD| Step number                                                               2
 MD| Time [fs]                                                          1.000000
 MD| Conserved quantity [hartree]                            -0.779847456639E+03
 MD| ---------------------------------------------------------------------------
 MD|                                          Instantaneous             Averages
 MD| CPU time per MD step [s]                   1845.512841          2725.463701
 MD| Energy drift per atom [K]          -0.558019792365E+02  -0.279009896183E+02
 MD| Potential energy [hartree]         -0.779997270595E+03  -0.779988858806E+03
 MD| Kinetic energy [hartree]            0.149659449297E+00   0.141958815581E+00
 MD| Temperature [K]                             331.639719           314.575404
 MD| ***************************************************************************

 Number of electrons:                                                        538
 Number of occupied orbitals:                                                269
 Number of molecular orbitals:                                               269

 Number of orbital functions:                                               1248
 Number of independent orbital functions:                                   1248

 Extrapolation method: ASPC


 SCF WAVEFUNCTION OPTIMIZATION

  ----------------------------------- OT ---------------------------------------
  Minimizer      : DIIS                : direct inversion
                                         in the iterative subspace
                                         using   7 DIIS vectors
                                         safer DIIS on
  Preconditioner : FULL_SINGLE_INVERSE : inversion of 
                                         H + eS - 2*(Sc)(c^T*H*c+const)(Sc)^T
  Precond_solver : DEFAULT
  stepsize       :    0.08000000                  energy_gap     :    0.08000000
  eps_taylor     :   0.10000E-15                  max_taylor     :             4
  ----------------------------------- OT ---------------------------------------

  Step     Update method      Time    Convergence         Total energy    Change
  ------------------------------------------------------------------------------
     1 OT DIIS     0.80E-01   21.4     0.00189073      -780.0029101504 -7.80E+02
     2 OT DIIS     0.80E-01   17.1     0.00349404      -779.9711789361  3.17E-02
     3 OT DIIS     0.80E-01   16.0     0.00062533      -780.0222177640 -5.10E-02
     4 OT DIIS     0.80E-01   14.2     0.00023323      -780.0239590005 -1.74E-03
     5 OT DIIS     0.80E-01   15.8     0.00012611      -780.0243459916 -3.87E-04
     6 OT DIIS     0.80E-01   14.6     0.00009708      -780.0246227635 -2.77E-04
     7 OT DIIS     0.80E-01   14.8     0.00008654      -780.0249137683 -2.91E-04
     8 OT DIIS     0.80E-01   16.6     0.00007451      -780.0252797939 -3.66E-04
     9 OT DIIS     0.80E-01   13.9     0.00006663      -780.0255499046 -2.70E-04
    10 OT DIIS     0.80E-01   14.0     0.00005979      -780.0258374796 -2.88E-04
    11 OT DIIS     0.80E-01   14.9     0.00006122      -780.0260521255 -2.15E-04
    12 OT DIIS     0.80E-01   16.4     0.00005473      -780.0262185451 -1.66E-04
    13 OT DIIS     0.80E-01   14.9     0.00004885      -780.0264022555 -1.84E-04
    14 OT DIIS     0.80E-01   17.4     0.00004482      -780.0265405348 -1.38E-04
    15 OT DIIS     0.80E-01   14.9     0.00004153      -780.0266901217 -1.50E-04
    16 OT DIIS     0.80E-01   13.8     0.00003979      -780.0268143382 -1.24E-04
    17 OT DIIS     0.80E-01   13.7     0.00003803      -780.0269348025 -1.20E-04
    18 OT DIIS     0.80E-01   15.7     0.00003632      -780.0270457245 -1.11E-04
    19 OT DIIS     0.80E-01   13.1     0.00003583      -780.0271469085 -1.01E-04
    20 OT DIIS     0.80E-01   14.4     0.00003519      -780.0272358430 -8.89E-05
    21 OT DIIS     0.80E-01   16.1     0.00003323      -780.0273330529 -9.72E-05
    22 OT DIIS     0.80E-01   16.3     0.00003202      -780.0274349892 -1.02E-04
    23 OT DIIS     0.80E-01   16.0     0.00003054      -780.0275502745 -1.15E-04
    24 OT DIIS     0.80E-01   15.7     0.00002957      -780.0276479426 -9.77E-05
    25 OT DIIS     0.80E-01   15.0     0.00002861      -780.0277539695 -1.06E-04
    26 OT DIIS     0.80E-01   13.1     0.00002782      -780.0278401802 -8.62E-05
    27 OT DIIS     0.80E-01   14.5     0.00002736      -780.0279167540 -7.66E-05
    28 OT DIIS     0.80E-01   13.6     0.00002725      -780.0280147632 -9.80E-05
    29 OT DIIS     0.80E-01   17.1     0.00002559      -780.0280857928 -7.10E-05
    30 OT DIIS     0.80E-01   14.4     0.00002471      -780.0281638822 -7.81E-05
    31 OT DIIS     0.80E-01   13.6     0.00002383      -780.0282397161 -7.58E-05
    32 OT DIIS     0.80E-01   15.3     0.00002301      -780.0283034036 -6.37E-05
    33 OT DIIS     0.80E-01   13.0     0.00002214      -780.0283807893 -7.74E-05
    34 OT DIIS     0.80E-01   14.2     0.00002167      -780.0284419425 -6.12E-05
    35 OT DIIS     0.80E-01   13.2     0.00002189      -780.0285114297 -6.95E-05
    36 OT DIIS     0.80E-01   13.1     0.00002140      -780.0285476427 -3.62E-05
    37 OT DIIS     0.80E-01   13.4     0.00001971      -780.0286043007 -5.67E-05
    38 OT DIIS     0.80E-01   15.4     0.00001917      -780.0286427684 -3.85E-05
    39 OT DIIS     0.80E-01   13.6     0.00001844      -780.0286819977 -3.92E-05
    40 OT DIIS     0.80E-01   16.4     0.00001785      -780.0287165959 -3.46E-05
    41 OT DIIS     0.80E-01   16.7     0.00001727      -780.0287582934 -4.17E-05
    42 OT DIIS     0.80E-01   13.8     0.00001682      -780.0287900770 -3.18E-05
    43 OT SD       0.80E-01   12.3     0.00001665      -780.0288400039 -4.99E-05
    44 OT DIIS     0.80E-01   15.4     0.00001940      -780.0288460855 -6.08E-06
    45 OT DIIS     0.80E-01   15.4     0.00001619      -780.0288988770 -5.28E-05
    46 OT DIIS     0.80E-01   16.1     0.00001531      -780.0289157497 -1.69E-05
    47 OT DIIS     0.80E-01   13.5     0.00001482      -780.0289437681 -2.80E-05
    48 OT DIIS     0.80E-01   12.9     0.00001387      -780.0289845350 -4.08E-05
    49 OT DIIS     0.80E-01   15.2     0.00001325      -780.0290141919 -2.97E-05
    50 OT DIIS     0.80E-01   14.5     0.00001275      -780.0290239720 -9.78E-06
    51 OT DIIS     0.80E-01   13.5     0.00001206      -780.0290510287 -2.71E-05
    52 OT DIIS     0.80E-01   18.2     0.00001214      -780.0290668310 -1.58E-05
    53 OT DIIS     0.80E-01   15.0     0.00001221      -780.0290835870 -1.68E-05
    54 OT DIIS     0.80E-01   15.2     0.00001171      -780.0290967025 -1.31E-05
    55 OT DIIS     0.80E-01   16.6     0.00001148      -780.0291192236 -2.25E-05
    56 OT DIIS     0.80E-01   14.6     0.00001082      -780.0291521031 -3.29E-05
    57 OT DIIS     0.80E-01   14.2     0.00001067      -780.0291679340 -1.58E-05
    58 OT DIIS     0.80E-01   15.0     0.00001031      -780.0291771050 -9.17E-06
    59 OT DIIS     0.80E-01   15.9     0.00000984      -780.0291981901 -2.11E-05
    60 OT DIIS     0.80E-01   12.5     0.00000974      -780.0292099198 -1.17E-05
    61 OT DIIS     0.80E-01   12.9     0.00000977      -780.0292225064 -1.26E-05
    62 OT DIIS     0.80E-01   14.7     0.00000945      -780.0292320011 -9.49E-06
    63 OT DIIS     0.80E-01   16.2     0.00000927      -780.0292475921 -1.56E-05
    64 OT DIIS     0.80E-01   14.3     0.00000886      -780.0292671824 -1.96E-05
    65 OT DIIS     0.80E-01   14.6     0.00000882      -780.0292779865 -1.08E-05
    66 OT DIIS     0.80E-01   14.2     0.00000863      -780.0292905241 -1.25E-05
    67 OT DIIS     0.80E-01   12.7     0.00000825      -780.0293029853 -1.25E-05
    68 OT DIIS     0.80E-01   13.6     0.00000814      -780.0293146274 -1.16E-05
    69 OT DIIS     0.80E-01   13.3     0.00000814      -780.0293263174 -1.17E-05
    70 OT DIIS     0.80E-01   14.5     0.00000780      -780.0293331818 -6.86E-06
    71 OT DIIS     0.80E-01   15.2     0.00000759      -780.0293430057 -9.82E-06
    72 OT DIIS     0.80E-01   16.7     0.00000734      -780.0293552926 -1.23E-05
    73 OT DIIS     0.80E-01   16.1     0.00000732      -780.0293646573 -9.36E-06
    74 OT DIIS     0.80E-01   14.4     0.00000714      -780.0293755629 -1.09E-05
    75 OT DIIS     0.80E-01   12.1     0.00000691      -780.0293828885 -7.33E-06
    76 OT DIIS     0.80E-01   12.6     0.00000675      -780.0293948310 -1.19E-05
    77 OT DIIS     0.80E-01   12.7     0.00000679      -780.0294036872 -8.86E-06
    78 OT DIIS     0.80E-01   10.9     0.00000646      -780.0294082415 -4.55E-06
    79 OT DIIS     0.80E-01   13.3     0.00000628      -780.0294150469 -6.81E-06
    80 OT DIIS     0.80E-01   14.1     0.00000605      -780.0294227915 -7.74E-06
    81 OT DIIS     0.80E-01   13.6     0.00000598      -780.0294285609 -5.77E-06
    82 OT DIIS     0.80E-01   13.7     0.00000591      -780.0294356987 -7.14E-06
    83 OT DIIS     0.80E-01   13.2     0.00000574      -780.0294392474 -3.55E-06
    84 OT DIIS     0.80E-01   11.3     0.00000559      -780.0294486844 -9.44E-06
    85 OT DIIS     0.80E-01   13.0     0.00000570      -780.0294539834 -5.30E-06
    86 OT DIIS     0.80E-01   14.2     0.00000544      -780.0294573378 -3.35E-06
    87 OT DIIS     0.80E-01   16.5     0.00000525      -780.0294625763 -5.24E-06
    88 OT DIIS     0.80E-01   14.7     0.00000503      -780.0294675858 -5.01E-06
    89 OT DIIS     0.80E-01   16.7     0.00000495      -780.0294714414 -3.86E-06
    90 OT DIIS     0.80E-01   14.7     0.00000489      -780.0294751975 -3.76E-06
    91 OT DIIS     0.80E-01   15.1     0.00000478      -780.0294776576 -2.46E-06
    92 OT DIIS     0.80E-01   15.4     0.00000465      -780.0294843963 -6.74E-06
    93 OT DIIS     0.80E-01   14.6     0.00000475      -780.0294870620 -2.67E-06
    94 OT DIIS     0.80E-01   15.5     0.00000458      -780.0294902008 -3.14E-06
    95 OT DIIS     0.80E-01   16.2     0.00000439      -780.0294943484 -4.15E-06
    96 OT DIIS     0.80E-01   13.9     0.00000420      -780.0294972885 -2.94E-06
    97 OT DIIS     0.80E-01   13.2     0.00000407      -780.0294998388 -2.55E-06
    98 OT DIIS     0.80E-01   13.4     0.00000402      -780.0295016146 -1.78E-06
    99 OT DIIS     0.80E-01   15.4     0.00000391      -780.0295034400 -1.83E-06
   100 OT DIIS     0.80E-01   15.7     0.00000383      -780.0295071633 -3.72E-06
   101 OT DIIS     0.80E-01   15.6     0.00000385      -780.0295079224 -7.59E-07
   102 OT DIIS     0.80E-01   14.9     0.00000380      -780.0295106695 -2.75E-06
   103 OT DIIS     0.80E-01   14.6     0.00000360      -780.0295129323 -2.26E-06
   104 OT DIIS     0.80E-01   14.0     0.00000348      -780.0295142037 -1.27E-06
   105 OT DIIS     0.80E-01   13.1     0.00000335      -780.0295161035 -1.90E-06
   106 OT DIIS     0.80E-01   14.1     0.00000327      -780.0295169489 -8.45E-07
   107 OT DIIS     0.80E-01   14.1     0.00000319      -780.0295180064 -1.06E-06
   108 OT DIIS     0.80E-01   13.1     0.00000316      -780.0295196203 -1.61E-06
   109 OT DIIS     0.80E-01   12.3     0.00000313      -780.0295199494 -3.29E-07
   110 OT DIIS     0.80E-01   13.0     0.00000312      -780.0295218762 -1.93E-06
   111 OT DIIS     0.80E-01   12.0     0.00000300      -780.0295230810 -1.20E-06
   112 OT DIIS     0.80E-01   13.8     0.00000295      -780.0295238729 -7.92E-07
   113 OT DIIS     0.80E-01   14.4     0.00000281      -780.0295253999 -1.53E-06
   114 OT DIIS     0.80E-01   13.0     0.00000273      -780.0295259440 -5.44E-07
   115 OT DIIS     0.80E-01   13.3     0.00000265      -780.0295266802 -7.36E-07
   116 OT DIIS     0.80E-01   14.0     0.00000262      -780.0295274839 -8.04E-07
   117 OT DIIS     0.80E-01   16.1     0.00000259      -780.0295277495 -2.66E-07
   118 OT DIIS     0.80E-01   15.5     0.00000258      -780.0295288836 -1.13E-06
   119 OT DIIS     0.80E-01   14.4     0.00000251      -780.0295295067 -6.23E-07
   120 OT DIIS     0.80E-01   13.8     0.00000248      -780.0295300838 -5.77E-07

  Leaving inner SCF loop after reaching   120 steps.


  Electronic density on regular grids:       -538.0000000000        0.0000000000
  Core density on regular grids:              537.9999999988       -0.0000000012
  Total charge density on r-space grids:       -0.0000000012
  Total charge density g-space grids:          -0.0000000012

  Overlap energy of the core charge distribution:               0.00095064794002
  Self energy of the core charge distribution:              -1670.29475011632690
  Core Hamiltonian energy:                                    363.67127900814535
  Hartree energy:                                             697.80948044622937
  Exchange-correlation energy:                               -170.97774259093904
  Dispersion energy:                                           -0.23874747885476

  Total energy:                                              -780.02953008380587

 *** WARNING in qs_scf.F:609 :: SCF run NOT converged ***


 ENERGY| Total FORCE_EVAL ( QS ) energy [hartree]           -780.029531113299186

 MD| ***************************************************************************
 MD| Step number                                                               3
 MD| Time [fs]                                                          1.500000
 MD| Conserved quantity [hartree]                            -0.779847553401E+03
 MD| ---------------------------------------------------------------------------
 MD|                                          Instantaneous             Averages
 MD| CPU time per MD step [s]                   1767.449326          2406.125576
 MD| Energy drift per atom [K]          -0.561202604130E+02  -0.373074132165E+02
 MD| Potential energy [hartree]         -0.780029531113E+03  -0.780002416242E+03
 MD| Kinetic energy [hartree]            0.181559711246E+00   0.155159114136E+00
 MD| Temperature [K]                             402.329501           343.826769
 MD| ***************************************************************************

 Number of electrons:                                                        538
 Number of occupied orbitals:                                                269
 Number of molecular orbitals:                                               269

 Number of orbital functions:                                               1248
 Number of independent orbital functions:                                   1248

 Extrapolation method: ASPC


 SCF WAVEFUNCTION OPTIMIZATION

  ----------------------------------- OT ---------------------------------------
  Minimizer      : DIIS                : direct inversion
                                         in the iterative subspace
                                         using   7 DIIS vectors
                                         safer DIIS on
  Preconditioner : FULL_SINGLE_INVERSE : inversion of 
                                         H + eS - 2*(Sc)(c^T*H*c+const)(Sc)^T
  Precond_solver : DEFAULT
  stepsize       :    0.08000000                  energy_gap     :    0.08000000
  eps_taylor     :   0.10000E-15                  max_taylor     :             4
  ----------------------------------- OT ---------------------------------------

  Step     Update method      Time    Convergence         Total energy    Change
  ------------------------------------------------------------------------------
     1 OT DIIS     0.80E-01   15.8     0.00081687      -780.0709040082 -7.80E+02
     2 OT DIIS     0.80E-01   11.1     0.00154795      -780.0648948243  6.01E-03
     3 OT DIIS     0.80E-01   11.8     0.00028682      -780.0746498575 -9.76E-03
     4 OT DIIS     0.80E-01    9.7     0.00012992      -780.0749828241 -3.33E-04
     5 OT DIIS     0.80E-01   10.7     0.00006773      -780.0750872693 -1.04E-04
     6 OT DIIS     0.80E-01   13.4     0.00004965      -780.0751436865 -5.64E-05
     7 OT DIIS     0.80E-01   13.2     0.00004416      -780.0752027382 -5.91E-05
     8 OT DIIS     0.80E-01   11.8     0.00003868      -780.0752810313 -7.83E-05
     9 OT DIIS     0.80E-01   13.4     0.00003313      -780.0753359746 -5.49E-05
    10 OT DIIS     0.80E-01   13.1     0.00002922      -780.0753878218 -5.18E-05
    11 OT DIIS     0.80E-01   14.0     0.00002803      -780.0754296439 -4.18E-05
    12 OT DIIS     0.80E-01   14.1     0.00002806      -780.0754693259 -3.97E-05
    13 OT DIIS     0.80E-01   14.6     0.00002521      -780.0755056875 -3.64E-05
    14 OT DIIS     0.80E-01   13.1     0.00002365      -780.0755365241 -3.08E-05
    15 OT DIIS     0.80E-01   12.6     0.00002209      -780.0755647624 -2.82E-05
    16 OT DIIS     0.80E-01   16.6     0.00002123      -780.0755914541 -2.67E-05
    17 OT DIIS     0.80E-01   14.5     0.00002055      -780.0756142107 -2.28E-05
    18 OT DIIS     0.80E-01   13.8     0.00001975      -780.0756424897 -2.83E-05
    19 OT DIIS     0.80E-01   15.5     0.00001927      -780.0756697567 -2.73E-05
    20 OT DIIS     0.80E-01   13.5     0.00001924      -780.0756981851 -2.84E-05
    21 OT DIIS     0.80E-01   14.6     0.00001863      -780.0757242060 -2.60E-05
    22 OT DIIS     0.80E-01   14.7     0.00001821      -780.0757540594 -2.99E-05
    23 OT DIIS     0.80E-01   16.0     0.00001772      -780.0757870769 -3.30E-05
    24 OT DIIS     0.80E-01   14.0     0.00001729      -780.0758203008 -3.32E-05
    25 OT DIIS     0.80E-01   12.6     0.00001689      -780.0758513387 -3.10E-05
    26 OT DIIS     0.80E-01   13.8     0.00001623      -780.0758813577 -3.00E-05
    27 OT DIIS     0.80E-01   13.7     0.00001584      -780.0759109970 -2.96E-05
    28 OT DIIS     0.80E-01   14.1     0.00001580      -780.0759401058 -2.91E-05
    29 OT DIIS     0.80E-01   14.5     0.00001549      -780.0759642144 -2.41E-05
    30 OT DIIS     0.80E-01   16.7     0.00001513      -780.0759943005 -3.01E-05
    31 OT DIIS     0.80E-01   15.1     0.00001482      -780.0760246525 -3.04E-05
    32 OT DIIS     0.80E-01   15.3     0.00001446      -780.0760503039 -2.57E-05
    33 OT DIIS     0.80E-01   14.0     0.00001426      -780.0760793578 -2.91E-05
    34 OT DIIS     0.80E-01   17.8     0.00001385      -780.0761008613 -2.15E-05
    35 OT DIIS     0.80E-01   14.0     0.00001356      -780.0761297537 -2.89E-05
    36 OT DIIS     0.80E-01   13.4     0.00001354      -780.0761553861 -2.56E-05
    37 OT DIIS     0.80E-01   13.6     0.00001328      -780.0761764153 -2.10E-05
    38 OT DIIS     0.80E-01   14.1     0.00001295      -780.0762020378 -2.56E-05
    39 OT DIIS     0.80E-01   13.3     0.00001279      -780.0762276814 -2.56E-05
    40 OT DIIS     0.80E-01   11.7     0.00001252      -780.0762462261 -1.85E-05
    41 OT DIIS     0.80E-01   11.8     0.00001240      -780.0762773197 -3.11E-05
    42 OT DIIS     0.80E-01   13.4     0.00001210      -780.0762930268 -1.57E-05
    43 OT DIIS     0.80E-01   15.8     0.00001184      -780.0763223433 -2.93E-05
    44 OT DIIS     0.80E-01   13.4     0.00001173      -780.0763414105 -1.91E-05
    45 OT DIIS     0.80E-01   12.7     0.00001149      -780.0763586925 -1.73E-05
    46 OT DIIS     0.80E-01   13.0     0.00001124      -780.0763807439 -2.21E-05
    47 OT DIIS     0.80E-01   13.5     0.00001121      -780.0764055669 -2.48E-05
    48 OT DIIS     0.80E-01   11.7     0.00001094      -780.0764203629 -1.48E-05
    49 OT DIIS     0.80E-01   12.8     0.00001095      -780.0764516775 -3.13E-05
    50 OT DIIS     0.80E-01   13.4     0.00001051      -780.0764599079 -8.23E-06
    51 OT DIIS     0.80E-01   14.9     0.00001006      -780.0764737654 -1.39E-05
    52 OT DIIS     0.80E-01   14.6     0.00001036      -780.0764948947 -2.11E-05
    53 OT DIIS     0.80E-01   12.7     0.00001033      -780.0765155884 -2.07E-05
    54 OT DIIS     0.80E-01   14.5     0.00000998      -780.0765343788 -1.88E-05
    55 OT DIIS     0.80E-01   12.8     0.00000986      -780.0765485827 -1.42E-05
    56 OT SD       0.80E-01   15.4     0.00000993      -780.0765548992 -6.32E-06
    57 OT DIIS     0.80E-01   15.1     0.00001059      -780.0765570420 -2.14E-06
    58 OT DIIS     0.80E-01   13.6     0.00000892      -780.0765640260 -6.98E-06
    59 OT DIIS     0.80E-01   14.3     0.00000889      -780.0765784135 -1.44E-05
    60 OT DIIS     0.80E-01   14.4     0.00000850      -780.0765980371 -1.96E-05
    61 OT DIIS     0.80E-01   13.8     0.00000969      -780.0766172755 -1.92E-05
    62 OT DIIS     0.80E-01   13.2     0.00000875      -780.0766237559 -6.48E-06
    63 OT DIIS     0.80E-01   11.9     0.00000741      -780.0766307892 -7.03E-06
    64 OT DIIS     0.80E-01   13.6     0.00000712      -780.0766371852 -6.40E-06
    65 OT DIIS     0.80E-01   17.1     0.00000696      -780.0766401918 -3.01E-06
    66 OT DIIS     0.80E-01   15.9     0.00000699      -780.0766457414 -5.55E-06
    67 OT DIIS     0.80E-01   14.0     0.00000639      -780.0766592340 -1.35E-05
    68 OT DIIS     0.80E-01   15.8     0.00000568      -780.0766689022 -9.67E-06
    69 OT DIIS     0.80E-01   17.0     0.00000551      -780.0766722627 -3.36E-06
    70 OT DIIS     0.80E-01   12.8     0.00000558      -780.0766739362 -1.67E-06
    71 OT DIIS     0.80E-01   13.0     0.00000547      -780.0766767297 -2.79E-06
    72 OT DIIS     0.80E-01   14.0     0.00000538      -780.0766801076 -3.38E-06
    73 OT DIIS     0.80E-01   15.4     0.00000509      -780.0766860735 -5.97E-06
    74 OT DIIS     0.80E-01   15.0     0.00000500      -780.0766915212 -5.45E-06
    75 OT DIIS     0.80E-01   16.6     0.00000476      -780.0766931917 -1.67E-06
    76 OT DIIS     0.80E-01   15.8     0.00000451      -780.0766968104 -3.62E-06
    77 OT DIIS     0.80E-01   15.7     0.00000440      -780.0766990469 -2.24E-06
    78 OT DIIS     0.80E-01   14.0     0.00000442      -780.0767010392 -1.99E-06
    79 OT DIIS     0.80E-01   14.7     0.00000436      -780.0767034349 -2.40E-06
    80 OT DIIS     0.80E-01   14.9     0.00000426      -780.0767057560 -2.32E-06
    81 OT DIIS     0.80E-01   16.3     0.00000406      -780.0767088529 -3.10E-06
    82 OT DIIS     0.80E-01   15.5     0.00000398      -780.0767112974 -2.44E-06
    83 OT DIIS     0.80E-01   15.7     0.00000394      -780.0767122628 -9.65E-07
    84 OT DIIS     0.80E-01   15.7     0.00000382      -780.0767146366 -2.37E-06
    85 OT DIIS     0.80E-01   14.0     0.00000380      -780.0767173463 -2.71E-06
    86 OT DIIS     0.80E-01   15.7     0.00000379      -780.0767195820 -2.24E-06
    87 OT DIIS     0.80E-01   15.4     0.00000381      -780.0767212711 -1.69E-06
    88 OT DIIS     0.80E-01   15.7     0.00000353      -780.0767230049 -1.73E-06
    89 OT DIIS     0.80E-01   16.4     0.00000338      -780.0767244783 -1.47E-06
    90 OT DIIS     0.80E-01   16.5     0.00000334      -780.0767259274 -1.45E-06
    91 OT DIIS     0.80E-01   16.6     0.00000334      -780.0767269708 -1.04E-06
    92 OT DIIS     0.80E-01   16.2     0.00000323      -780.0767288066 -1.84E-06
    93 OT DIIS     0.80E-01   14.9     0.00000318      -780.0767313570 -2.55E-06
    94 OT DIIS     0.80E-01   14.6     0.00000314      -780.0767328936 -1.54E-06
    95 OT DIIS     0.80E-01   14.8     0.00000315      -780.0767332413 -3.48E-07
    96 OT DIIS     0.80E-01   14.2     0.00000298      -780.0767346148 -1.37E-06
    97 OT DIIS     0.80E-01   15.9     0.00000288      -780.0767356662 -1.05E-06
    98 OT DIIS     0.80E-01   13.7     0.00000283      -780.0767369059 -1.24E-06
    99 OT DIIS     0.80E-01   14.1     0.00000283      -780.0767377605 -8.55E-07
   100 OT DIIS     0.80E-01   13.8     0.00000274      -780.0767388797 -1.12E-06
   101 OT DIIS     0.80E-01   11.9     0.00000268      -780.0767404907 -1.61E-06
   102 OT DIIS     0.80E-01   13.9     0.00000267      -780.0767414205 -9.30E-07
   103 OT DIIS     0.80E-01   15.2     0.00000284      -780.0767420581 -6.38E-07
   104 OT DIIS     0.80E-01   13.7     0.00000263      -780.0767431891 -1.13E-06
   105 OT DIIS     0.80E-01   15.4     0.00000252      -780.0767442218 -1.03E-06
   106 OT DIIS     0.80E-01   17.7     0.00000244      -780.0767453709 -1.15E-06
   107 OT DIIS     0.80E-01   14.4     0.00000241      -780.0767459624 -5.92E-07
   108 OT DIIS     0.80E-01   14.1     0.00000235      -780.0767466720 -7.10E-07
   109 OT DIIS     0.80E-01   14.4     0.00000232      -780.0767478103 -1.14E-06
   110 OT DIIS     0.80E-01   14.5     0.00000235      -780.0767488651 -1.05E-06
   111 OT DIIS     0.80E-01   14.6     0.00000240      -780.0767493696 -5.04E-07
   112 OT DIIS     0.80E-01   15.4     0.00000227      -780.0767506909 -1.32E-06
   113 OT DIIS     0.80E-01   15.9     0.00000217      -780.0767513329 -6.42E-07
   114 OT DIIS     0.80E-01   14.2     0.00000209      -780.0767521621 -8.29E-07
   115 OT DIIS     0.80E-01   13.2     0.00000208      -780.0767525640 -4.02E-07
   116 OT DIIS     0.80E-01   13.6     0.00000203      -780.0767532184 -6.54E-07
   117 OT DIIS     0.80E-01   13.2     0.00000200      -780.0767543794 -1.16E-06
   118 OT DIIS     0.80E-01   17.3     0.00000199      -780.0767551198 -7.40E-07
   119 OT DIIS     0.80E-01   17.0     0.00000207      -780.0767555079 -3.88E-07
   120 OT DIIS     0.80E-01   14.5     0.00000190      -780.0767566411 -1.13E-06

  Leaving inner SCF loop after reaching   120 steps.


  Electronic density on regular grids:       -538.0000000000        0.0000000000
  Core density on regular grids:              537.9999999988       -0.0000000012
  Total charge density on r-space grids:       -0.0000000012
  Total charge density g-space grids:          -0.0000000012

  Overlap energy of the core charge distribution:               0.00085427333052
  Self energy of the core charge distribution:              -1670.29475011632690
  Core Hamiltonian energy:                                    363.59246201994279
  Hartree energy:                                             697.82851428848289
  Exchange-correlation energy:                               -170.96510391528338
  Dispersion energy:                                           -0.23873319126438

  Total energy:                                              -780.07675664111844

 *** WARNING in qs_scf.F:609 :: SCF run NOT converged ***


 ENERGY| Total FORCE_EVAL ( QS ) energy [hartree]           -780.076756927084261

 MD| ***************************************************************************
 MD| Step number                                                               4
 MD| Time [fs]                                                          2.000000
 MD| Conserved quantity [hartree]                            -0.779847680940E+03
 MD| ---------------------------------------------------------------------------
 MD|                                          Instantaneous             Averages
 MD| CPU time per MD step [s]                   1746.413092          2241.197455
 MD| Energy drift per atom [K]          -0.565397772773E+02  -0.421155042317E+02
 MD| Potential energy [hartree]         -0.780076756927E+03  -0.780021001413E+03
 MD| Kinetic energy [hartree]            0.228514787830E+00   0.173498032559E+00
 MD| Temperature [K]                             506.380187           384.465124
 MD| ***************************************************************************

 Number of electrons:                                                        538
 Number of occupied orbitals:                                                269
 Number of molecular orbitals:                                               269

 Number of orbital functions:                                               1248
 Number of independent orbital functions:                                   1248

 Extrapolation method: ASPC


 SCF WAVEFUNCTION OPTIMIZATION

  ----------------------------------- OT ---------------------------------------
  Minimizer      : DIIS                : direct inversion
                                         in the iterative subspace
                                         using   7 DIIS vectors
                                         safer DIIS on
  Preconditioner : FULL_SINGLE_INVERSE : inversion of 
                                         H + eS - 2*(Sc)(c^T*H*c+const)(Sc)^T
  Precond_solver : DEFAULT
  stepsize       :    0.08000000                  energy_gap     :    0.08000000
  eps_taylor     :   0.10000E-15                  max_taylor     :             4
  ----------------------------------- OT ---------------------------------------

  Step     Update method      Time    Convergence         Total energy    Change
  ------------------------------------------------------------------------------
     1 OT DIIS     0.80E-01   18.2     0.00049437      -780.1350721474 -7.80E+02
     2 OT DIIS     0.80E-01   13.4     0.00105295      -780.1319245098  3.15E-03
     3 OT DIIS     0.80E-01   17.9     0.00017231      -780.1362373135 -4.31E-03
     4 OT DIIS     0.80E-01   16.5     0.00006733      -780.1363574955 -1.20E-04
     5 OT DIIS     0.80E-01   15.4     0.00004054      -780.1363841079 -2.66E-05
     6 OT DIIS     0.80E-01   14.3     0.00002937      -780.1363998876 -1.58E-05
     7 OT DIIS     0.80E-01   14.3     0.00002614      -780.1364181352 -1.82E-05
     8 OT DIIS     0.80E-01   14.0     0.00002271      -780.1364419624 -2.38E-05
     9 OT DIIS     0.80E-01   14.5     0.00002000      -780.1364664527 -2.45E-05
    10 OT DIIS     0.80E-01   14.7     0.00001856      -780.1364846260 -1.82E-05
    11 OT DIIS     0.80E-01   13.4     0.00001742      -780.1365030423 -1.84E-05
    12 OT DIIS     0.80E-01   12.9     0.00001730      -780.1365230758 -2.00E-05
    13 OT DIIS     0.80E-01   14.3     0.00001693      -780.1365386273 -1.56E-05
    14 OT DIIS     0.80E-01   14.0     0.00001574      -780.1365524209 -1.38E-05
    15 OT DIIS     0.80E-01   14.3     0.00001483      -780.1365658752 -1.35E-05
    16 OT DIIS     0.80E-01   14.7     0.00001395      -780.1365773190 -1.14E-05
    17 OT DIIS     0.80E-01   15.0     0.00001340      -780.1365906373 -1.33E-05
    18 OT DIIS     0.80E-01   13.1     0.00001307      -780.1366037671 -1.31E-05
    19 OT DIIS     0.80E-01   17.9     0.00001268      -780.1366171871 -1.34E-05
    20 OT DIIS     0.80E-01   14.6     0.00001246      -780.1366316026 -1.44E-05
    21 OT DIIS     0.80E-01   11.8     0.00001246      -780.1366439080 -1.23E-05
    22 OT DIIS     0.80E-01   12.2     0.00001214      -780.1366555756 -1.17E-05
    23 OT DIIS     0.80E-01   15.1     0.00001189      -780.1366705703 -1.50E-05
[...]
   107 OT DIIS     0.80E-01   13.6     0.00000116      -782.3928065678 -2.31E-07
   108 OT DIIS     0.80E-01   13.9     0.00000115      -782.3928067947 -2.27E-07
   109 OT DIIS     0.80E-01   18.6     0.00000114      -782.3928069918 -1.97E-07
   110 OT DIIS     0.80E-01   13.8     0.00000113      -782.3928072294 -2.38E-07
   111 OT DIIS     0.80E-01   12.5     0.00000113      -782.3928073982 -1.69E-07
   112 OT DIIS     0.80E-01   12.9     0.00000112      -782.3928076046 -2.06E-07
   113 OT DIIS     0.80E-01   14.0     0.00000111      -782.3928078350 -2.30E-07
   114 OT DIIS     0.80E-01   14.2     0.00000110      -782.3928080263 -1.91E-07
   115 OT DIIS     0.80E-01   12.9     0.00000109      -782.3928082527 -2.26E-07
   116 OT DIIS     0.80E-01   13.2     0.00000108      -782.3928084696 -2.17E-07
   117 OT DIIS     0.80E-01   15.1     0.00000108      -782.3928086696 -2.00E-07
   118 OT DIIS     0.80E-01   14.5     0.00000107      -782.3928089133 -2.44E-07
   119 OT DIIS     0.80E-01   13.0     0.00000107      -782.3928090894 -1.76E-07
   120 OT DIIS     0.80E-01   11.6     0.00000105      -782.3928092966 -2.07E-07

  Leaving inner SCF loop after reaching   120 steps.


  Electronic density on regular grids:       -538.0000000000        0.0000000000
  Core density on regular grids:              537.9999999988       -0.0000000012
  Total charge density on r-space grids:       -0.0000000012
  Total charge density g-space grids:          -0.0000000012

  Overlap energy of the core charge distribution:               0.00000387130837
  Self energy of the core charge distribution:              -1670.29475011632690
  Core Hamiltonian energy:                                    361.82293722533171
  Hartree energy:                                             697.61252742985869
  Exchange-correlation energy:                               -171.30130517079940
  Dispersion energy:                                           -0.23222253600491

  Total energy:                                              -782.39280929663244

 *** WARNING in qs_scf.F:609 :: SCF run NOT converged ***


 ENERGY| Total FORCE_EVAL ( QS ) energy [hartree]           -782.392809532700198

 MD| ***************************************************************************
 MD| Step number                                                              86
 MD| Time [fs]                                                         43.000000
 MD| Conserved quantity [hartree]                            -0.779848657609E+03
 MD| ---------------------------------------------------------------------------
 MD|                                          Instantaneous             Averages
 MD| CPU time per MD step [s]                   1648.400721           901.600471
 MD| Energy drift per atom [K]          -0.597523545464E+02  -0.581692849593E+02
 MD| Potential energy [hartree]         -0.782392809533E+03  -0.781533248652E+03
 MD| Kinetic energy [hartree]            0.246492044300E+01   0.164979384775E+01
 MD| Temperature [K]                            5462.171123          3655.881203
 MD| ***************************************************************************

 Number of electrons:                                                        538
 Number of occupied orbitals:                                                269
 Number of molecular orbitals:                                               269

 Number of orbital functions:                                               1248
 Number of independent orbital functions:                                   1248

 Extrapolation method: ASPC


 SCF WAVEFUNCTION OPTIMIZATION

  ----------------------------------- OT ---------------------------------------
  Minimizer      : DIIS                : direct inversion
                                         in the iterative subspace
                                         using   7 DIIS vectors
                                         safer DIIS on
  Preconditioner : FULL_SINGLE_INVERSE : inversion of 
                                         H + eS - 2*(Sc)(c^T*H*c+const)(Sc)^T
  Precond_solver : DEFAULT
  stepsize       :    0.08000000                  energy_gap     :    0.08000000
  eps_taylor     :   0.10000E-15                  max_taylor     :             4
  ----------------------------------- OT ---------------------------------------

  Step     Update method      Time    Convergence         Total energy    Change
  ------------------------------------------------------------------------------
     1 OT DIIS     0.80E-01   21.2     0.00091013      -782.3973011071 -7.82E+02
     2 OT DIIS     0.80E-01   13.5     0.00152425      -782.3933331449  3.97E-03
     3 OT DIIS     0.80E-01   14.5     0.00044636      -782.4024422958 -9.11E-03
     4 OT DIIS     0.80E-01   13.8     0.00019191      -782.4031092178 -6.67E-04
     5 OT DIIS     0.80E-01   16.6     0.00006654      -782.4032861017 -1.77E-04
     6 OT DIIS     0.80E-01   12.1     0.00004627      -782.4033392058 -5.31E-05
     7 OT DIIS     0.80E-01   12.5     0.00003922      -782.4033922867 -5.31E-05
     8 OT DIIS     0.80E-01   12.5     0.00003310      -782.4034430481 -5.08E-05
     9 OT DIIS     0.80E-01   14.2     0.00002620      -782.4034820069 -3.90E-05
    10 OT DIIS     0.80E-01   13.7     0.00002336      -782.4035079034 -2.59E-05
    11 OT DIIS     0.80E-01   14.5     0.00002146      -782.4035349146 -2.70E-05
    12 OT DIIS     0.80E-01   15.1     0.00002293      -782.4035573421 -2.24E-05
    13 OT DIIS     0.80E-01   12.8     0.00001921      -782.4035745610 -1.72E-05
    14 OT DIIS     0.80E-01   15.2     0.00001546      -782.4035920066 -1.74E-05
    15 OT DIIS     0.80E-01   15.6     0.00001394      -782.4036037816 -1.18E-05
    16 OT DIIS     0.80E-01   15.8     0.00001285      -782.4036140985 -1.03E-05
    17 OT DIIS     0.80E-01   15.5     0.00001188      -782.4036215864 -7.49E-06
    18 OT DIIS     0.80E-01   14.7     0.00001089      -782.4036294210 -7.83E-06
    19 OT DIIS     0.80E-01   15.6     0.00001031      -782.4036359779 -6.56E-06
    20 OT DIIS     0.80E-01   13.1     0.00001025      -782.4036414043 -5.43E-06
    21 OT DIIS     0.80E-01   15.4     0.00000993      -782.4036455018 -4.10E-06
    22 OT DIIS     0.80E-01   14.6     0.00000902      -782.4036509198 -5.42E-06
    23 OT DIIS     0.80E-01   14.2     0.00000874      -782.4036562304 -5.31E-06
    24 OT DIIS     0.80E-01   15.2     0.00000828      -782.4036619918 -5.76E-06
    25 OT DIIS     0.80E-01   14.1     0.00000799      -782.4036661043 -4.11E-06
    26 OT DIIS     0.80E-01   15.1     0.00000750      -782.4036706996 -4.60E-06
    27 OT DIIS     0.80E-01   15.1     0.00000726      -782.4036747288 -4.03E-06
    28 OT DIIS     0.80E-01   17.3     0.00000723      -782.4036785893 -3.86E-06
    29 OT DIIS     0.80E-01   21.0     0.00000719      -782.4036816295 -3.04E-06
    30 OT DIIS     0.80E-01   19.3     0.00000662      -782.4036855801 -3.95E-06
    31 OT DIIS     0.80E-01   14.1     0.00000645      -782.4036893438 -3.76E-06
    32 OT DIIS     0.80E-01   13.1     0.00000618      -782.4036932001 -3.86E-06
    33 OT DIIS     0.80E-01   14.3     0.00000606      -782.4036960592 -2.86E-06
    34 OT DIIS     0.80E-01   15.2     0.00000578      -782.4036995373 -3.48E-06
    35 OT DIIS     0.80E-01   15.9     0.00000564      -782.4037027837 -3.25E-06
    36 OT DIIS     0.80E-01   15.3     0.00000560      -782.4037059902 -3.21E-06
    37 OT DIIS     0.80E-01   18.0     0.00000556      -782.4037083575 -2.37E-06
    38 OT DIIS     0.80E-01   14.2     0.00000517      -782.4037112439 -2.89E-06
    39 OT DIIS     0.80E-01   15.7     0.00000504      -782.4037138725 -2.63E-06
    40 OT DIIS     0.80E-01   15.9     0.00000488      -782.4037167075 -2.84E-06
    41 OT DIIS     0.80E-01   15.8     0.00000481      -782.4037189124 -2.20E-06
    42 OT DIIS     0.80E-01   14.0     0.00000461      -782.4037216095 -2.70E-06
    43 OT DIIS     0.80E-01   13.4     0.00000448      -782.4037239873 -2.38E-06
    44 OT DIIS     0.80E-01   12.1     0.00000444      -782.4037262287 -2.24E-06
    45 OT DIIS     0.80E-01   12.1     0.00000440      -782.4037277594 -1.53E-06
    46 OT DIIS     0.80E-01   14.4     0.00000415      -782.4037296578 -1.90E-06
    47 OT DIIS     0.80E-01   14.3     0.00000407      -782.4037313706 -1.71E-06
    48 OT DIIS     0.80E-01   17.0     0.00000396      -782.4037332905 -1.92E-06
    49 OT DIIS     0.80E-01   17.9     0.00000390      -782.4037348262 -1.54E-06
    50 OT DIIS     0.80E-01   14.0     0.00000377      -782.4037364324 -1.61E-06
    51 OT DIIS     0.80E-01   15.5     0.00000368      -782.4037378993 -1.47E-06
    52 OT DIIS     0.80E-01   14.5     0.00000365      -782.4037392660 -1.37E-06
    53 OT DIIS     0.80E-01   15.9     0.00000365      -782.4037402632 -9.97E-07
    54 OT DIIS     0.80E-01   16.0     0.00000349      -782.4037415317 -1.27E-06
    55 OT DIIS     0.80E-01   14.1     0.00000344      -782.4037427818 -1.25E-06
    56 OT DIIS     0.80E-01   15.5     0.00000337      -782.4037441098 -1.33E-06
    57 OT DIIS     0.80E-01   16.0     0.00000332      -782.4037452782 -1.17E-06
    58 OT DIIS     0.80E-01   14.0     0.00000324      -782.4037464084 -1.13E-06
    59 OT DIIS     0.80E-01   14.5     0.00000318      -782.4037475762 -1.17E-06
    60 OT DIIS     0.80E-01   15.3     0.00000316      -782.4037487517 -1.18E-06
    61 OT DIIS     0.80E-01   14.1     0.00000317      -782.4037496954 -9.44E-07
    62 OT DIIS     0.80E-01   15.0     0.00000305      -782.4037508217 -1.13E-06
    63 OT DIIS     0.80E-01   13.4     0.00000299      -782.4037519631 -1.14E-06
    64 OT DIIS     0.80E-01   13.6     0.00000294      -782.4037531220 -1.16E-06
    65 OT DIIS     0.80E-01   14.5     0.00000290      -782.4037541693 -1.05E-06
    66 OT DIIS     0.80E-01   12.9     0.00000285      -782.4037551893 -1.02E-06
    67 OT DIIS     0.80E-01   15.0     0.00000279      -782.4037563088 -1.12E-06
    68 OT DIIS     0.80E-01   13.8     0.00000277      -782.4037573961 -1.09E-06
    69 OT DIIS     0.80E-01   15.4     0.00000278      -782.4037582786 -8.82E-07
    70 OT DIIS     0.80E-01   13.7     0.00000268      -782.4037592163 -9.38E-07
    71 OT DIIS     0.80E-01   15.3     0.00000262      -782.4037601503 -9.34E-07
    72 OT DIIS     0.80E-01   14.8     0.00000258      -782.4037611224 -9.72E-07
    73 OT DIIS     0.80E-01   15.2     0.00000256      -782.4037619999 -8.77E-07
    74 OT DIIS     0.80E-01   16.5     0.00000251      -782.4037628658 -8.66E-07
    75 OT DIIS     0.80E-01   14.1     0.00000247      -782.4037638076 -9.42E-07
    76 OT DIIS     0.80E-01   15.6     0.00000244      -782.4037646605 -8.53E-07
    77 OT DIIS     0.80E-01   14.3     0.00000245      -782.4037653750 -7.14E-07
    78 OT DIIS     0.80E-01   14.7     0.00000237      -782.4037660876 -7.13E-07
    79 OT DIIS     0.80E-01   14.8     0.00000233      -782.4037668337 -7.46E-07
    80 OT DIIS     0.80E-01   12.8     0.00000230      -782.4037676488 -8.15E-07
    81 OT DIIS     0.80E-01   13.2     0.00000228      -782.4037683948 -7.46E-07
    82 OT DIIS     0.80E-01   14.2     0.00000224      -782.4037690816 -6.87E-07
    83 OT DIIS     0.80E-01   13.6     0.00000220      -782.4037698327 -7.51E-07
    84 OT DIIS     0.80E-01   15.2     0.00000218      -782.4037704880 -6.55E-07
    85 OT DIIS     0.80E-01   11.8     0.00000219      -782.4037710907 -6.03E-07
    86 OT DIIS     0.80E-01   13.4     0.00000212      -782.4037716706 -5.80E-07
    87 OT DIIS     0.80E-01   12.4     0.00000209      -782.4037723262 -6.56E-07
    88 OT DIIS     0.80E-01   14.0     0.00000207      -782.4037729926 -6.66E-07
    89 OT DIIS     0.80E-01   13.2     0.00000204      -782.4037736178 -6.25E-07
    90 OT DIIS     0.80E-01   14.2     0.00000201      -782.4037741472 -5.29E-07
    91 OT DIIS     0.80E-01   13.5     0.00000198      -782.4037747519 -6.05E-07
    92 OT DIIS     0.80E-01   13.9     0.00000197      -782.4037752833 -5.31E-07
    93 OT DIIS     0.80E-01   12.6     0.00000198      -782.4037758231 -5.40E-07
    94 OT DIIS     0.80E-01   11.0     0.00000192      -782.4037762871 -4.64E-07
    95 OT DIIS     0.80E-01   13.2     0.00000189      -782.4037768587 -5.72E-07
    96 OT DIIS     0.80E-01   15.2     0.00000187      -782.4037773596 -5.01E-07
    97 OT DIIS     0.80E-01   13.3     0.00000185      -782.4037778660 -5.06E-07
    98 OT DIIS     0.80E-01   13.0     0.00000183      -782.4037782913 -4.25E-07
    99 OT DIIS     0.80E-01   13.2     0.00000180      -782.4037788122 -5.21E-07
   100 OT DIIS     0.80E-01   13.9     0.00000179      -782.4037792719 -4.60E-07
   101 OT DIIS     0.80E-01   13.4     0.00000180      -782.4037797476 -4.76E-07
   102 OT DIIS     0.80E-01   14.6     0.00000175      -782.4037801017 -3.54E-07
   103 OT DIIS     0.80E-01   12.6     0.00000172      -782.4037805838 -4.82E-07
   104 OT DIIS     0.80E-01   13.2     0.00000170      -782.4037809881 -4.04E-07
   105 OT DIIS     0.80E-01   13.0     0.00000169      -782.4037814328 -4.45E-07
   106 OT DIIS     0.80E-01   12.2     0.00000167      -782.4037818111 -3.78E-07
   107 OT DIIS     0.80E-01   15.6     0.00000165      -782.4037822739 -4.63E-07
   108 OT DIIS     0.80E-01   16.8     0.00000163      -782.4037826659 -3.92E-07
   109 OT DIIS     0.80E-01   15.1     0.00000163      -782.4037830633 -3.97E-07
   110 OT DIIS     0.80E-01   14.2     0.00000160      -782.4037833292 -2.66E-07
   111 OT DIIS     0.80E-01   14.5     0.00000158      -782.4037837490 -4.20E-07
   112 OT DIIS     0.80E-01   16.2     0.00000156      -782.4037840980 -3.49E-07
   113 OT DIIS     0.80E-01   15.0     0.00000155      -782.4037845094 -4.11E-07
   114 OT DIIS     0.80E-01   14.9     0.00000153      -782.4037848163 -3.07E-07
   115 OT DIIS     0.80E-01   13.8     0.00000151      -782.4037851815 -3.65E-07
   116 OT DIIS     0.80E-01   12.5     0.00000149      -782.4037854878 -3.06E-07
   117 OT DIIS     0.80E-01   14.1     0.00000150      -782.4037858175 -3.30E-07
   118 OT DIIS     0.80E-01   13.9     0.00000147      -782.4037860256 -2.08E-07
   119 OT DIIS     0.80E-01   12.7     0.00000145      -782.4037864064 -3.81E-07
   120 OT DIIS     0.80E-01   13.6     0.00000143      -782.4037866804 -2.74E-07

  Leaving inner SCF loop after reaching   120 steps.


  Electronic density on regular grids:       -538.0000000000        0.0000000000
  Core density on regular grids:              537.9999999988       -0.0000000012
  Total charge density on r-space grids:       -0.0000000012
  Total charge density g-space grids:          -0.0000000012

  Overlap energy of the core charge distribution:               0.00000431224874
  Self energy of the core charge distribution:              -1670.29475011632690
  Core Hamiltonian energy:                                    361.97155686670180
  Hartree energy:                                             697.51275919894692
  Exchange-correlation energy:                               -171.36123444309652
  Dispersion energy:                                           -0.23212249892005

  Total energy:                                              -782.40378668044582

 *** WARNING in qs_scf.F:609 :: SCF run NOT converged ***


 ENERGY| Total FORCE_EVAL ( QS ) energy [hartree]           -782.403787023452423

 MD| ***************************************************************************
 MD| Step number                                                              87
 MD| Time [fs]                                                         43.500000
 MD| Conserved quantity [hartree]                            -0.779848663005E+03
 MD| ---------------------------------------------------------------------------
 MD|                                          Instantaneous             Averages
 MD| CPU time per MD step [s]                   1768.083178           911.560043
 MD| Energy drift per atom [K]          -0.597701009387E+02  -0.581876851430E+02
 MD| Potential energy [hartree]         -0.782403787023E+03  -0.781543254840E+03
 MD| Kinetic energy [hartree]            0.247488924909E+01   0.165927770294E+01
 MD| Temperature [K]                            5484.261623          3676.897070
 MD| ***************************************************************************

 Number of electrons:                                                        538
 Number of occupied orbitals:                                                269
 Number of molecular orbitals:                                               269

 Number of orbital functions:                                               1248
 Number of independent orbital functions:                                   1248

 Extrapolation method: ASPC


 SCF WAVEFUNCTION OPTIMIZATION

  ----------------------------------- OT ---------------------------------------
  Minimizer      : DIIS                : direct inversion
                                         in the iterative subspace
                                         using   7 DIIS vectors
                                         safer DIIS on
  Preconditioner : FULL_SINGLE_INVERSE : inversion of 
                                         H + eS - 2*(Sc)(c^T*H*c+const)(Sc)^T
  Precond_solver : DEFAULT
  stepsize       :    0.08000000                  energy_gap     :    0.08000000
  eps_taylor     :   0.10000E-15                  max_taylor     :             4
  ----------------------------------- OT ---------------------------------------

  Step     Update method      Time    Convergence         Total energy    Change
  ------------------------------------------------------------------------------
     1 OT DIIS     0.80E-01   22.5     0.00053033      -782.4118660931 -7.82E+02
     2 OT DIIS     0.80E-01   13.2     0.00100208      -782.4091287850  2.74E-03
     3 OT DIIS     0.80E-01   14.0     0.00019140      -782.4132947728 -4.17E-03
     4 OT DIIS     0.80E-01   13.1     0.00007566      -782.4134384005 -1.44E-04
     5 OT DIIS     0.80E-01   12.7     0.00003782      -782.4134656274 -2.72E-05
     6 OT DIIS     0.80E-01   13.6     0.00002498      -782.4134795044 -1.39E-05
     7 OT DIIS     0.80E-01   15.6     0.00002046      -782.4134917408 -1.22E-05
     8 OT DIIS     0.80E-01   15.9     0.00001825      -782.4135034565 -1.17E-05
     9 OT DIIS     0.80E-01   14.4     0.00001449      -782.4135144175 -1.10E-05
    10 OT DIIS     0.80E-01   13.3     0.00001285      -782.4135228671 -8.45E-06
    11 OT DIIS     0.80E-01   12.9     0.00001166      -782.4135301116 -7.24E-06
    12 OT DIIS     0.80E-01   12.9     0.00001152      -782.4135360158 -5.90E-06
    13 OT DIIS     0.80E-01   13.0     0.00001100      -782.4135408462 -4.83E-06
    14 OT DIIS     0.80E-01   15.5     0.00000949      -782.4135453024 -4.46E-06
    15 OT DIIS     0.80E-01   13.7     0.00000882      -782.4135491782 -3.88E-06
    16 OT DIIS     0.80E-01   13.6     0.00000823      -782.4135528810 -3.70E-06
    17 OT DIIS     0.80E-01   12.0     0.00000772      -782.4135558254 -2.94E-06
    18 OT DIIS     0.80E-01   12.6     0.00000731      -782.4135591781 -3.35E-06
    19 OT DIIS     0.80E-01   12.1     0.00000711      -782.4135621847 -3.01E-06
    20 OT DIIS     0.80E-01   13.1     0.00000697      -782.4135652831 -3.10E-06
    21 OT DIIS     0.80E-01   14.1     0.00000700      -782.4135679840 -2.70E-06
    22 OT DIIS     0.80E-01   13.1     0.00000663      -782.4135707488 -2.76E-06
    23 OT DIIS     0.80E-01   13.2     0.00000648      -782.4135737901 -3.04E-06
    24 OT DIIS     0.80E-01   14.4     0.00000628      -782.4135769645 -3.17E-06
    25 OT DIIS     0.80E-01   13.7     0.00000611      -782.4135797173 -2.75E-06
    26 OT DIIS     0.80E-01   13.8     0.00000589      -782.4135830760 -3.36E-06
    27 OT DIIS     0.80E-01   15.7     0.00000576      -782.4135860520 -2.98E-06
    28 OT DIIS     0.80E-01   18.9     0.00000568      -782.4135894674 -3.42E-06
    29 OT DIIS     0.80E-01   18.7     0.00000570      -782.4135924109 -2.94E-06
