 DBCSR| CPU Multiplication driver                                           BLAS (U)
 DBCSR| Multrec recursion limit                                              512 (U)
 DBCSR| Multiplication stack size                                           1000 (D)
 DBCSR| Maximum elements for images                                    UNLIMITED (U)
 DBCSR| Multiplicative factor virtual images                                   1 (U)
 DBCSR| Use multiplication densification                                       T (D)
 DBCSR| Multiplication size stacks                                             3 (U)
 DBCSR| Use memory pool for CPU allocation                                     F (U)
 DBCSR| Number of 3D layers                                               SINGLE (U)
 DBCSR| Use MPI memory allocation                                              F (U)
 DBCSR| Use RMA algorithm                                                      F (U)
 DBCSR| Use Communication thread                                               T (U)
 DBCSR| Communication thread load                                             53 (D)
 DBCSR| MPI: My process id                                                     0
 DBCSR| MPI: Number of processes                                               1
 DBCSR| OMP: Current number of threads                                        10
 DBCSR| OMP: Max number of threads                                            10
 DBCSR| Split modifier for TAS multiplication algorithm                  1.0E+00 (U)


  **** **** ******  **  PROGRAM STARTED AT               2025-10-01 14:49:37.904
 ***** ** ***  *** **   PROGRAM STARTED ON                                   Mac
 **    ****   ******    PROGRAM STARTED BY                           jdmusgraves
 ***** **    ** ** **   PROGRAM PROCESS ID                                 70936
  **** **  *******  **  PROGRAM STARTED IN /Users/jdmusgraves/GitHub/local_shake
                                           down_kit

 CP2K| version string:                                       CP2K version 2025.1
 CP2K| source code revision number:                                             
 CP2K| cp2kflags: omp libint fftw3 libxc parallel scalapack no_statm_access     
 CP2K| is freely available from                            https://www.cp2k.org/
 CP2K| Program compiled at                                   2025-01-01 12:26:53
 CP2K| Program compiled on                                                      
 CP2K| Program compiled for                                                arm64
 CP2K| Data directory path      /opt/homebrew/Cellar/cp2k/2025.1/share/cp2k/data
 CP2K| Input file name                                 inputs/md_loose_smear.inp

 GLOBAL| Force Environment number                                              1
 GLOBAL| Basis set file name                                        BASIS_MOLOPT
 GLOBAL| Potential file name                                      GTH_POTENTIALS
 GLOBAL| MM Potential file name                                     MM_POTENTIAL
 GLOBAL| Coordinate file name                          inputs/as4se6_10_seed.xyz
 GLOBAL| Method name                                                        CP2K
 GLOBAL| Project name                                             md_loose_smear
 GLOBAL| Run type                                                             MD
 GLOBAL| FFT library                                                       FFTW3
 GLOBAL| Diagonalization library                                       ScaLAPACK
 GLOBAL| DGEMM library                                                      BLAS
 GLOBAL| Orthonormality check for eigenvectors                          DISABLED
 GLOBAL| Matrix multiplication library                                 ScaLAPACK
 GLOBAL| All-to-all communication in single precision                          F
 GLOBAL| FFTs using library dependent lengths                                  F
 GLOBAL| Grid backend                                                       AUTO
 GLOBAL| Global print level                                                  LOW
 GLOBAL| MPI I/O enabled                                                       T
 GLOBAL| Total number of message passing processes                             1
 GLOBAL| Number of threads for this process                                   10
 GLOBAL| This output is from process                                           0
 GLOBAL| OpenMP stack size per thread (OMP_STACKSIZE)                    default
 GLOBAL| CPU model name                                                  UNKNOWN
 GLOBAL| CPUID                                                              2000

 MEMORY| system memory details [Kb]
 MEMORY|                        rank 0           min           max       average
 MEMORY| MemTotal                    0             0             0             0
 MEMORY| MemFree                     0             0             0             0
 MEMORY| Buffers                     0             0             0             0
 MEMORY| Cached                      0             0             0             0
 MEMORY| Slab                        0             0             0             0
 MEMORY| SReclaimable                0             0             0             0
 MEMORY| MemLikelyFree               0             0             0             0


 GENERATE|  Preliminary Number of Bonds generated:                             0
 GENERATE|  Achieved consistency in connectivity generation.

 *******************************************************************************
 *******************************************************************************
 **                                                                           **
 **     #####                         ##              ##                      **
 **    ##   ##            ##          ##              ##                      **
 **   ##     ##                       ##            ######                    **
 **   ##     ##  ##   ##  ##   #####  ##  ##   ####   ##    #####    #####    **
 **   ##     ##  ##   ##  ##  ##      ## ##   ##      ##   ##   ##  ##   ##   **
 **   ##  ## ##  ##   ##  ##  ##      ####     ###    ##   ######   ######    **
 **    ##  ###   ##   ##  ##  ##      ## ##      ##   ##   ##       ##        **
 **     #######   #####   ##   #####  ##  ##  ####    ##    #####   ##        **
 **           ##                                                    ##        **
 **                                                                           **
 **                                                ... make the atoms dance   **
 **                                                                           **
 **            Copyright (C) by CP2K developers group (2000-2025)             **
 **                      J. Chem. Phys. 152, 194103 (2020)                    **
 **                                                                           **
 *******************************************************************************


 TOTAL NUMBERS AND MAXIMUM NUMBERS

  Total number of            - Atomic kinds:                                   2
                             - Atoms:                                         10
                             - Shell sets:                                    10
                             - Shells:                                        50
                             - Primitive Cartesian functions:                 40
                             - Cartesian basis functions:                    140
                             - Spherical basis functions:                    130

  Maximum angular momentum of the orbital basis functions:                     2


 SCF PARAMETERS         Density guess:                                    ATOMIC
                        --------------------------------------------------------
                        max_scf:                                              20
                        max_scf_history:                                       0
                        max_diis:                                              4
                        --------------------------------------------------------
                        eps_scf:                                        1.00E-04
                        eps_scf_history:                                0.00E+00
                        eps_diis:                                       1.00E-01
                        eps_eigval:                                     1.00E-05
                        --------------------------------------------------------
                        level_shift [a.u.]:                             0.000000
                        added MOs                                        20    0
                        --------------------------------------------------------
                        Mixing method:                            BROYDEN_MIXING
                                                charge density mixing in g-space
                        --------------------------------------------------------
                        Smear method:                                FERMI_DIRAC
                        Electronic temperature [K]:                       3000.0
                        Electronic temperature [a.u.]:                  9.50E-03
                        Accuracy threshold:                             1.00E-10
                        --------------------------------------------------------
                        No outer SCF

 MD_PAR| Molecular dynamics protocol (MD input parameters)
 MD_PAR| Ensemble type                                                       NVT
 MD_PAR| Number of time steps                                                 50
 MD_PAR| Time step [fs]                                                 0.500000
 MD_PAR| Temperature [K]                                              300.000000
 MD_PAR| Temperature tolerance [K]                                      0.000000
 MD_PAR| Print MD information every                                    1 step(s)
 MD_PAR| File type   Print frequency [steps]                          File names
 MD_PAR| Coordinates         10 md_loose_smear-md_loose_smear-pos-1.xyz-pos-1.xy
 MD_PAR| Velocities          10 md_loose_smear-md_loose_smear-vel-1.xyz-vel-1.xy
 MD_PAR| Energies             1                            md_loose_smear-1.ener
 MD_PAR| Dump                20                         md_loose_smear-1.restart

 ROT| Rotational analysis information
 ROT| Principal axes and moments of inertia [a.u.]
 ROT|                           1                   2                   3
 ROT| Eigenvalues      6.31551038905E+07   1.06093105645E+08   1.30638895369E+08
 ROT|      x              0.842770580719      0.391383760643     -0.369535519511
 ROT|      y              0.343867553638     -0.919640297963     -0.189780999886
 ROT|      z              0.414116956705     -0.032870568407      0.909629964272
 ROT| Number of rotovibrational vectors                                        6

 DOF| Calculation of degrees of freedom
 DOF| Number of atoms                                                         10
 DOF| Number of intramolecular constraints                                     0
 DOF| Number of intermolecular constraints                                     0
 DOF| Invariants (translations + rotations)                                    3
 DOF| Degrees of freedom                                                      27

 DOF| Restraints information
 DOF| Number of intramolecular restraints                                      0
 DOF| Number of intermolecular restraints                                      0

 THERMOSTAT| Thermostat information for PARTICLES
 THERMOSTAT| Type of thermostat            Canonical Sampling/Velocity Rescaling
 THERMOSTAT| CSVR time constant [fs]                                  500.000000
 THERMOSTAT| Initial kinetic energy                           0.000000000000E+00
 THERMOSTAT| End of thermostat information for PARTICLES

 MD_VEL| Velocities initialization
 MD_VEL| Initial temperature [K]                                      300.000000
 MD_VEL| COM velocity            -0.0000000000     0.0000000000     0.0000000000

 Number of electrons:                                                         56
 Number of occupied orbitals:                                                 28
 Number of molecular orbitals:                                                48

 Number of orbital functions:                                                130
 Number of independent orbital functions:                                    130

 Extrapolation method: initial_guess


 SCF WAVEFUNCTION OPTIMIZATION

  Step     Update method      Time    Convergence         Total energy    Change
  ------------------------------------------------------------------------------
     1 NoMix/Diag. 0.10E+00    0.9     0.80979223       -80.7054519071 -8.07E+01
     2 Broy./Diag. 0.10E+00    1.1     0.86522137       -80.5429446911  1.63E-01
     3 Broy./Diag. 0.10E+00    1.1     0.09661277       -81.4651150624 -9.22E-01
     4 Broy./Diag. 0.10E+00    1.2     0.12185968       -81.4740720900 -8.96E-03
     5 Broy./Diag. 0.10E+00    1.2     0.07238262       -81.4572653660  1.68E-02
     6 Broy./Diag. 0.10E+00    1.3     0.03393055       -81.3798935940  7.74E-02
     7 Broy./Diag. 0.10E+00    1.3     0.02856982       -81.2699915665  1.10E-01
     8 Broy./Diag. 0.10E+00    1.3     0.03234894       -81.1834359868  8.66E-02
     9 Broy./Diag. 0.10E+00    1.2     0.01300001       -81.1262091144  5.72E-02
    10 Broy./Diag. 0.10E+00    1.2     0.00281135       -81.1212995038  4.91E-03
    11 Broy./Diag. 0.10E+00    1.4     0.00465068       -81.1125620847  8.74E-03
    12 Broy./Diag. 0.10E+00    1.3     0.00411470       -81.1115955663  9.67E-04
    13 Broy./Diag. 0.10E+00    1.3     0.00348797       -81.1105997838  9.96E-04
    14 Broy./Diag. 0.10E+00    1.3     0.00208618       -81.1131173354 -2.52E-03
    15 Broy./Diag. 0.10E+00    1.3     0.00300565       -81.1200768703 -6.96E-03
    16 Broy./Diag. 0.10E+00    1.3     0.00217627       -81.1256487512 -5.57E-03
    17 Broy./Diag. 0.10E+00    1.3     0.00186834       -81.1310613370 -5.41E-03
    18 Broy./Diag. 0.10E+00    1.4     0.00131574       -81.1327818248 -1.72E-03
    19 Broy./Diag. 0.10E+00    1.3     0.00127258       -81.1334497032 -6.68E-04
    20 Broy./Diag. 0.10E+00    1.3     0.00110643       -81.1307035561  2.75E-03

  Leaving inner SCF loop after reaching    20 steps.


  Electronic density on regular grids:        -56.0000000000        0.0000000000
  Core density on regular grids:               55.9999999889       -0.0000000111
  Total charge density on r-space grids:       -0.0000000110
  Total charge density g-space grids:          -0.0000000110

  Overlap energy of the core charge distribution:               0.00000004585315
  Self energy of the core charge distribution:               -173.72443963993129
  Core Hamiltonian energy:                                     37.68271469005654
  Hartree energy:                                              72.69732613540866
  Exchange-correlation energy:                                -17.56943974700681
  Dispersion energy:                                           -0.00501785459117
  Electronic entropic energy:                                  -0.21183679875141
  Fermi energy:                                                -0.17567818553736

  Total energy:                                               -81.13070355608411

 *** WARNING in qs_scf.F:609 :: SCF run NOT converged ***


 ENERGY| Total FORCE_EVAL ( QS ) energy [hartree]            -81.123084203127860

 MD_INI| MD initialization
 MD_INI| Potential energy [hartree]                          -0.811230842031E+02
 MD_INI| Kinetic energy [hartree]                             0.128256021403E-01
 MD_INI| Temperature [K]                                              300.000000
 MD_INI| Cell volume [bohr^3]                                 2.277562921793E+04
 MD_INI| Cell volume [ang^3]                                  3.375000000000E+03
 MD_INI| Cell lengths [bohr]      2.83458920E+01  2.83458920E+01  2.83458920E+01
 MD_INI| Cell lengths [ang]       1.50000000E+01  1.50000000E+01  1.50000000E+01
 MD_INI| Cell angles [deg]        9.00000000E+01  9.00000000E+01  9.00000000E+01

 Number of electrons:                                                         56
 Number of occupied orbitals:                                                 40
 Number of molecular orbitals:                                                48

 Number of orbital functions:                                                130
 Number of independent orbital functions:                                    130

 Extrapolation method: ASPC


 SCF WAVEFUNCTION OPTIMIZATION

  Step     Update method      Time    Convergence         Total energy    Change
  ------------------------------------------------------------------------------
     1 Broy./Diag. 0.10E+00    0.8     0.05609009       -81.1230852253 -8.11E+01
     2 Broy./Diag. 0.10E+00    1.0     0.09439905       -81.1423449060 -1.93E-02
     3 Broy./Diag. 0.10E+00    1.1     0.03770332       -81.1022962598  4.00E-02
     4 Broy./Diag. 0.10E+00    1.1     0.00431841       -81.1189237205 -1.66E-02
     5 Broy./Diag. 0.10E+00    1.2     0.00259368       -81.1204891682 -1.57E-03
     6 Broy./Diag. 0.10E+00    1.2     0.00118866       -81.1208339851 -3.45E-04
     7 Broy./Diag. 0.10E+00    1.2     0.00042027       -81.1218784465 -1.04E-03
     8 Broy./Diag. 0.10E+00    1.2     0.00041841       -81.1225224559 -6.44E-04
     9 Broy./Diag. 0.10E+00    1.2     0.00041676       -81.1229677972 -4.45E-04
    10 Broy./Diag. 0.10E+00    1.2     0.00028954       -81.1233431414 -3.75E-04
    11 Broy./Diag. 0.10E+00    1.2     0.00021896       -81.1233343207  8.82E-06
    12 Broy./Diag. 0.10E+00    1.2     0.00020947       -81.1233996639 -6.53E-05
    13 Broy./Diag. 0.10E+00    1.2     0.00015435       -81.1233257588  7.39E-05
    14 Broy./Diag. 0.10E+00    1.2     0.00011207       -81.1232433582  8.24E-05
    15 Broy./Diag. 0.10E+00    1.2     0.00012395       -81.1232420779  1.28E-06
    16 Broy./Diag. 0.10E+00    1.2     0.00008846       -81.1231945284  4.75E-05

  *** SCF run converged in    16 steps ***


  Electronic density on regular grids:        -56.0000000000        0.0000000000
  Core density on regular grids:               55.9999999889       -0.0000000111
  Total charge density on r-space grids:       -0.0000000110
  Total charge density g-space grids:          -0.0000000110

  Overlap energy of the core charge distribution:               0.00000004470968
  Self energy of the core charge distribution:               -173.72443963993129
  Core Hamiltonian energy:                                     37.68310370169292
  Hartree energy:                                              72.70401683319390
  Exchange-correlation energy:                                -17.56886148826397
  Dispersion energy:                                           -0.00501652725475
  Electronic entropic energy:                                  -0.21199962304611
  Fermi energy:                                                -0.17541299849514

  Total energy:                                               -81.12319452844714

 ENERGY| Total FORCE_EVAL ( QS ) energy [hartree]            -81.123103596223828

 MD| ***************************************************************************
 MD| Step number                                                               1
 MD| Time [fs]                                                          0.500000
 MD| Conserved quantity [hartree]                            -0.811102744950E+02
 MD| ---------------------------------------------------------------------------
 MD|                                          Instantaneous             Averages
 MD| CPU time per MD step [s]                     46.876530            46.876530
 MD| Energy drift per atom [K]          -0.501893130509E+00   0.000000000000E+00
 MD| Potential energy [hartree]         -0.811231035962E+02  -0.811231035962E+02
 MD| Kinetic energy [hartree]            0.127839391194E-01   0.127839391194E-01
 MD| Temperature [K]                             299.025472           299.025472
 MD| ***************************************************************************

 Number of electrons:                                                         56
 Number of occupied orbitals:                                                 40
 Number of molecular orbitals:                                                48

 Number of orbital functions:                                                130
 Number of independent orbital functions:                                    130

 Extrapolation method: ASPC


 SCF WAVEFUNCTION OPTIMIZATION

  Step     Update method      Time    Convergence         Total energy    Change
  ------------------------------------------------------------------------------
     1 Broy./Diag. 0.10E+00    0.8     0.00298973       -81.1231374081 -8.11E+01
     2 Broy./Diag. 0.10E+00    1.1     0.00369403       -81.1258102577 -2.67E-03
     3 Broy./Diag. 0.10E+00    1.1     0.00172478       -81.1256666679  1.44E-04
     4 Broy./Diag. 0.10E+00    1.2     0.00072426       -81.1250054808  6.61E-04
     5 Broy./Diag. 0.10E+00    1.2     0.00018647       -81.1242333099  7.72E-04
     6 Broy./Diag. 0.10E+00    1.3     0.00024019       -81.1236661946  5.67E-04
     7 Broy./Diag. 0.10E+00    1.3     0.00006320       -81.1234211512  2.45E-04

  *** SCF run converged in     7 steps ***


  Electronic density on regular grids:        -56.0000000000        0.0000000000
  Core density on regular grids:               55.9999999889       -0.0000000111
  Total charge density on r-space grids:       -0.0000000110
  Total charge density g-space grids:          -0.0000000110

  Overlap energy of the core charge distribution:               0.00000004359081
  Self energy of the core charge distribution:               -173.72443963993129
  Core Hamiltonian energy:                                     37.68213507787924
  Hartree energy:                                              72.70447021149958
  Exchange-correlation energy:                                -17.56857232309492
  Dispersion energy:                                           -0.00501513208985
  Electronic entropic energy:                                  -0.21200211957136
  Fermi energy:                                                -0.17543517797306

  Total energy:                                               -81.12342115120221

 ENERGY| Total FORCE_EVAL ( QS ) energy [hartree]            -81.123142687700948

 MD| ***************************************************************************
 MD| Step number                                                               2
 MD| Time [fs]                                                          1.000000
 MD| Conserved quantity [hartree]                            -0.811102745466E+02
 MD| ---------------------------------------------------------------------------
 MD|                                          Instantaneous             Averages
 MD| CPU time per MD step [s]                      9.415271            28.145901
 MD| Energy drift per atom [K]          -0.503523362264E+00  -0.251761681132E+00
 MD| Potential energy [hartree]         -0.811231426877E+02  -0.811231231420E+02
 MD| Kinetic energy [hartree]            0.127868803834E-01   0.127854097514E-01
 MD| Temperature [K]                             299.094270           299.059871
 MD| ***************************************************************************

 Number of electrons:                                                         56
 Number of occupied orbitals:                                                 40
 Number of molecular orbitals:                                                48

 Number of orbital functions:                                                130
 Number of independent orbital functions:                                    130

 Extrapolation method: ASPC


 SCF WAVEFUNCTION OPTIMIZATION

  Step     Update method      Time    Convergence         Total energy    Change
  ------------------------------------------------------------------------------
     1 Broy./Diag. 0.10E+00    0.8     0.00197540       -81.1232129421 -8.11E+01
     2 Broy./Diag. 0.10E+00    1.0     0.00228527       -81.1215229589  1.69E-03
     3 Broy./Diag. 0.10E+00    1.1     0.00093751       -81.1225539095 -1.03E-03
     4 Broy./Diag. 0.10E+00    1.2     0.00041517       -81.1223439552  2.10E-04
     5 Broy./Diag. 0.10E+00    1.2     0.00025577       -81.1226027335 -2.59E-04
     6 Broy./Diag. 0.10E+00    1.3     0.00025419       -81.1228720675 -2.69E-04
     7 Broy./Diag. 0.10E+00    1.2     0.00018162       -81.1229985641 -1.26E-04
     8 Broy./Diag. 0.10E+00    1.3     0.00006372       -81.1231175238 -1.19E-04

  *** SCF run converged in     8 steps ***


  Electronic density on regular grids:        -56.0000000000        0.0000000000
  Core density on regular grids:               55.9999999889       -0.0000000111
  Total charge density on r-space grids:       -0.0000000110
  Total charge density g-space grids:          -0.0000000110

  Overlap energy of the core charge distribution:               0.00000004249907
  Self energy of the core charge distribution:               -173.72443963993129
  Core Hamiltonian energy:                                     37.68150226848881
  Hartree energy:                                              72.70515141276366
  Exchange-correlation energy:                                -17.56829591592096
  Dispersion energy:                                           -0.00501367114061
  Electronic entropic energy:                                  -0.21202198443340
  Fermi energy:                                                -0.17542514738904

  Total energy:                                               -81.12311752376296

 ENERGY| Total FORCE_EVAL ( QS ) energy [hartree]            -81.123217039314255

 MD| ***************************************************************************
 MD| Step number                                                               3
 MD| Time [fs]                                                          1.500000
 MD| Conserved quantity [hartree]                            -0.811102745795E+02
 MD| ---------------------------------------------------------------------------
 MD|                                          Instantaneous             Averages
 MD| CPU time per MD step [s]                     10.485657            22.259153
 MD| Energy drift per atom [K]          -0.504561730584E+00  -0.336028364283E+00
 MD| Potential energy [hartree]         -0.811232170393E+02  -0.811231544411E+02
 MD| Kinetic energy [hartree]            0.130316969653E-01   0.128675054894E-01
 MD| Temperature [K]                             304.820705           300.980149
 MD| ***************************************************************************

 Number of electrons:                                                         56
 Number of occupied orbitals:                                                 40
 Number of molecular orbitals:                                                48

 Number of orbital functions:                                                130
 Number of independent orbital functions:                                    130

 Extrapolation method: ASPC


 SCF WAVEFUNCTION OPTIMIZATION

  Step     Update method      Time    Convergence         Total energy    Change
  ------------------------------------------------------------------------------
     1 Broy./Diag. 0.10E+00    0.8     0.00223026       -81.1233234491 -8.11E+01
     2 Broy./Diag. 0.10E+00    1.1     0.00246780       -81.1256255994 -2.30E-03
     3 Broy./Diag. 0.10E+00    1.1     0.00092554       -81.1249357757  6.90E-04
     4 Broy./Diag. 0.10E+00    1.2     0.00034614       -81.1249437187 -7.94E-06
     5 Broy./Diag. 0.10E+00    1.2     0.00027676       -81.1244034391  5.40E-04
     6 Broy./Diag. 0.10E+00    1.3     0.00016888       -81.1240205898  3.83E-04
     7 Broy./Diag. 0.10E+00    1.3     0.00015349       -81.1238030539  2.18E-04
     8 Broy./Diag. 0.10E+00    1.3     0.00007609       -81.1235705080  2.33E-04

  *** SCF run converged in     8 steps ***


  Electronic density on regular grids:        -56.0000000000        0.0000000000
  Core density on regular grids:               55.9999999890       -0.0000000110
  Total charge density on r-space grids:       -0.0000000110
  Total charge density g-space grids:          -0.0000000110

  Overlap energy of the core charge distribution:               0.00000004143123
  Self energy of the core charge distribution:               -173.72443963993129
  Core Hamiltonian energy:                                     37.68056148002655
  Hartree energy:                                              72.70546929110809
  Exchange-correlation energy:                                -17.56814654508613
  Dispersion energy:                                           -0.00501213941654
  Electronic entropic energy:                                  -0.21200701154934
  Fermi energy:                                                -0.17543680808933

  Total energy:                                               -81.12357050804108

 ENERGY| Total FORCE_EVAL ( QS ) energy [hartree]            -81.123327044831839

 MD| ***************************************************************************
 MD| Step number                                                               4
 MD| Time [fs]                                                          2.000000
 MD| Conserved quantity [hartree]                            -0.811102745698E+02
 MD| ---------------------------------------------------------------------------
 MD|                                          Instantaneous             Averages
 MD| CPU time per MD step [s]                     10.657886            19.358836
 MD| Energy drift per atom [K]          -0.504256107593E+00  -0.378085300110E+00
 MD| Potential energy [hartree]         -0.811233270448E+02  -0.811231975920E+02
 MD| Kinetic energy [hartree]            0.131901733093E-01   0.129481724444E-01
 MD| Temperature [K]                             308.527580           302.867007
 MD| ***************************************************************************

 Number of electrons:                                                         56
 Number of occupied orbitals:                                                 40
 Number of molecular orbitals:                                                48

 Number of orbital functions:                                                130
 Number of independent orbital functions:                                    130

 Extrapolation method: ASPC


 SCF WAVEFUNCTION OPTIMIZATION

  Step     Update method      Time    Convergence         Total energy    Change
  ------------------------------------------------------------------------------
     1 Broy./Diag. 0.10E+00    0.8     0.00238016       -81.1234685814 -8.11E+01
     2 Broy./Diag. 0.10E+00    1.1     0.00365762       -81.1217369064  1.73E-03
     3 Broy./Diag. 0.10E+00    1.1     0.00152963       -81.1234315593 -1.69E-03
     4 Broy./Diag. 0.10E+00    1.1     0.00033619       -81.1228984119  5.33E-04
     5 Broy./Diag. 0.10E+00    1.2     0.00028108       -81.1230188039 -1.20E-04
     6 Broy./Diag. 0.10E+00    1.3     0.00026005       -81.1232282804 -2.09E-04
     7 Broy./Diag. 0.10E+00    1.3     0.00010026       -81.1232961804 -6.79E-05
     8 Broy./Diag. 0.10E+00    1.2     0.00006847       -81.1233750894 -7.89E-05

  *** SCF run converged in     8 steps ***


  Electronic density on regular grids:        -56.0000000000        0.0000000000
  Core density on regular grids:               55.9999999890       -0.0000000110
  Total charge density on r-space grids:       -0.0000000110
  Total charge density g-space grids:          -0.0000000110

  Overlap energy of the core charge distribution:               0.00000004039553
  Self energy of the core charge distribution:               -173.72443963993129
  Core Hamiltonian energy:                                     37.67998012011830
  Hartree energy:                                              72.70603440867369
  Exchange-correlation energy:                                -17.56794393862932
  Dispersion energy:                                           -0.00501054836432
  Electronic entropic energy:                                  -0.21199657481849
  Fermi energy:                                                -0.17543228506820

  Total energy:                                               -81.12337508937736

 ENERGY| Total FORCE_EVAL ( QS ) energy [hartree]            -81.123472023199824

 MD| ***************************************************************************
 MD| Step number                                                               5
 MD| Time [fs]                                                          2.500000
 MD| Conserved quantity [hartree]                            -0.811102745702E+02
 MD| ---------------------------------------------------------------------------
 MD|                                          Instantaneous             Averages
 MD| CPU time per MD step [s]                     10.527028            17.592474
 MD| Energy drift per atom [K]          -0.504267840421E+00  -0.403321808173E+00
 MD| Potential energy [hartree]         -0.811234720232E+02  -0.811232524783E+02
 MD| Kinetic energy [hartree]            0.134122193976E-01   0.130409818350E-01
 MD| Temperature [K]                             313.721397           305.037885
 MD| ***************************************************************************

 Number of electrons:                                                         56
 Number of occupied orbitals:                                                 40
 Number of molecular orbitals:                                                48

 Number of orbital functions:                                                130
 Number of independent orbital functions:                                    130

 Extrapolation method: ASPC


 SCF WAVEFUNCTION OPTIMIZATION

  Step     Update method      Time    Convergence         Total energy    Change
  ------------------------------------------------------------------------------
     1 Broy./Diag. 0.10E+00    0.8     0.00219917       -81.1236510300 -8.11E+01
     2 Broy./Diag. 0.10E+00    1.1     0.00232724       -81.1258983681 -2.25E-03
     3 Broy./Diag. 0.10E+00    1.1     0.00084698       -81.1253520478  5.46E-04
     4 Broy./Diag. 0.10E+00    1.1     0.00033148       -81.1252690889  8.30E-05
     5 Broy./Diag. 0.10E+00    1.2     0.00024073       -81.1248017431  4.67E-04
     6 Broy./Diag. 0.10E+00    1.3     0.00016242       -81.1244030659  3.99E-04
     7 Broy./Diag. 0.10E+00    1.3     0.00016010       -81.1241670046  2.36E-04
     8 Broy./Diag. 0.10E+00    1.2     0.00007369       -81.1239185365  2.48E-04

  *** SCF run converged in     8 steps ***


  Electronic density on regular grids:        -56.0000000000        0.0000000000
  Core density on regular grids:               55.9999999890       -0.0000000110
  Total charge density on r-space grids:       -0.0000000110
  Total charge density g-space grids:          -0.0000000110

  Overlap energy of the core charge distribution:               0.00000003937753
  Self energy of the core charge distribution:               -173.72443963993129
  Core Hamiltonian energy:                                     37.67906306775600
  Hartree energy:                                              72.70630142883066
  Exchange-correlation energy:                                -17.56787715411538
  Dispersion energy:                                           -0.00500887528894
  Electronic entropic energy:                                  -0.21196124536800
  Fermi energy:                                                -0.17543760305377

  Total energy:                                               -81.12391853646233

 ENERGY| Total FORCE_EVAL ( QS ) energy [hartree]            -81.123654274027260

 MD| ***************************************************************************
 MD| Step number                                                               6
 MD| Time [fs]                                                          3.000000
 MD| Conserved quantity [hartree]                            -0.811102745516E+02
 MD| ---------------------------------------------------------------------------
 MD|                                          Instantaneous             Averages
 MD| CPU time per MD step [s]                     10.592203            16.425763
 MD| Energy drift per atom [K]          -0.503681234008E+00  -0.420048379145E+00
 MD| Potential energy [hartree]         -0.811236542740E+02  -0.811233194442E+02
 MD| Kinetic energy [hartree]            0.137363567414E-01   0.131568776527E-01
 MD| Temperature [K]                             321.303201           307.748771
 MD| ***************************************************************************

 Number of electrons:                                                         56
 Number of occupied orbitals:                                                 40
 Number of molecular orbitals:                                                48

 Number of orbital functions:                                                130
 Number of independent orbital functions:                                    130

 Extrapolation method: ASPC


 SCF WAVEFUNCTION OPTIMIZATION

  Step     Update method      Time    Convergence         Total energy    Change
  ------------------------------------------------------------------------------
     1 Broy./Diag. 0.10E+00    0.9     0.00204921       -81.1238691270 -8.11E+01
     2 Broy./Diag. 0.10E+00    1.1     0.00255747       -81.1229733376  8.96E-04
     3 Broy./Diag. 0.10E+00    1.1     0.00119228       -81.1242104245 -1.24E-03
     4 Broy./Diag. 0.10E+00    1.2     0.00032753       -81.1237434954  4.67E-04
     5 Broy./Diag. 0.10E+00    1.2     0.00021075       -81.1238085314 -6.50E-05
     6 Broy./Diag. 0.10E+00    1.3     0.00018829       -81.1238469022 -3.84E-05
     7 Broy./Diag. 0.10E+00    1.3     0.00012015       -81.1238223707  2.45E-05
     8 Broy./Diag. 0.10E+00    1.3     0.00006899       -81.1238575779 -3.52E-05

  *** SCF run converged in     8 steps ***


  Electronic density on regular grids:        -56.0000000000        0.0000000000
  Core density on regular grids:               55.9999999890       -0.0000000110
  Total charge density on r-space grids:       -0.0000000110
  Total charge density g-space grids:          -0.0000000110

  Overlap energy of the core charge distribution:               0.00000003838788
  Self energy of the core charge distribution:               -173.72443963993129
  Core Hamiltonian energy:                                     37.67849186714238
  Hartree energy:                                              72.70676587051673
  Exchange-correlation energy:                                -17.56774631883236
  Dispersion energy:                                           -0.00500713682594
  Electronic entropic energy:                                  -0.21192324923890
  Fermi energy:                                                -0.17543678059632

  Total energy:                                               -81.12385757788637

 ENERGY| Total FORCE_EVAL ( QS ) energy [hartree]            -81.123872356105636

 MD| ***************************************************************************
 MD| Step number                                                               7
 MD| Time [fs]                                                          3.500000
 MD| Conserved quantity [hartree]                            -0.811102745478E+02
 MD| ---------------------------------------------------------------------------
 MD|                                          Instantaneous             Averages
 MD| CPU time per MD step [s]                     10.514385            15.581280
 MD| Energy drift per atom [K]          -0.503560025894E+00  -0.431978614395E+00
 MD| Potential energy [hartree]         -0.811238723561E+02  -0.811233984316E+02
 MD| Kinetic energy [hartree]            0.139040645056E-01   0.132636186317E-01
 MD| Temperature [K]                             325.226005           310.245519
 MD| ***************************************************************************

 Number of electrons:                                                         56
 Number of occupied orbitals:                                                 40
 Number of molecular orbitals:                                                48

 Number of orbital functions:                                                130
 Number of independent orbital functions:                                    130

 Extrapolation method: ASPC


 SCF WAVEFUNCTION OPTIMIZATION

  Step     Update method      Time    Convergence         Total energy    Change
  ------------------------------------------------------------------------------
     1 Broy./Diag. 0.10E+00    0.9     0.00227391       -81.1241219154 -8.11E+01
     2 Broy./Diag. 0.10E+00    1.0     0.00234577       -81.1261266312 -2.00E-03
     3 Broy./Diag. 0.10E+00    1.1     0.00067181       -81.1257941021  3.33E-04
     4 Broy./Diag. 0.10E+00    1.2     0.00034330       -81.1256400486  1.54E-04
     5 Broy./Diag. 0.10E+00    1.2     0.00021918       -81.1252008360  4.39E-04
     6 Broy./Diag. 0.10E+00    1.3     0.00017568       -81.1248428516  3.58E-04
     7 Broy./Diag. 0.10E+00    1.2     0.00012627       -81.1245855120  2.57E-04
     8 Broy./Diag. 0.10E+00    1.3     0.00007040       -81.1243762353  2.09E-04

  *** SCF run converged in     8 steps ***


  Electronic density on regular grids:        -56.0000000000        0.0000000000
  Core density on regular grids:               55.9999999890       -0.0000000110
  Total charge density on r-space grids:       -0.0000000110
  Total charge density g-space grids:          -0.0000000110

  Overlap energy of the core charge distribution:               0.00000003743154
  Self energy of the core charge distribution:               -173.72443963993129
  Core Hamiltonian energy:                                     37.67769769436570
  Hartree energy:                                              72.70698210703678
  Exchange-correlation energy:                                -17.56774821119431
  Dispersion energy:                                           -0.00500534269690
  Electronic entropic energy:                                  -0.21186660247513
  Fermi energy:                                                -0.17543840373249

  Total energy:                                               -81.12437623528365

 ENERGY| Total FORCE_EVAL ( QS ) energy [hartree]            -81.124125178978730

 MD| ***************************************************************************
 MD| Step number                                                               8
 MD| Time [fs]                                                          4.000000
 MD| Conserved quantity [hartree]                            -0.811102745297E+02
 MD| ---------------------------------------------------------------------------
 MD|                                          Instantaneous             Averages
 MD| CPU time per MD step [s]                     10.611409            14.960046
 MD| Energy drift per atom [K]          -0.502989192789E+00  -0.440854936694E+00
 MD| Potential energy [hartree]         -0.811241251790E+02  -0.811234892750E+02
 MD| Kinetic energy [hartree]            0.141760655761E-01   0.133776744998E-01
 MD| Temperature [K]                             331.588305           312.913367
 MD| ***************************************************************************

 Number of electrons:                                                         56
 Number of occupied orbitals:                                                 40
 Number of molecular orbitals:                                                48

 Number of orbital functions:                                                130
 Number of independent orbital functions:                                    130

 Extrapolation method: ASPC


 SCF WAVEFUNCTION OPTIMIZATION

  Step     Update method      Time    Convergence         Total energy    Change
  ------------------------------------------------------------------------------
     1 Broy./Diag. 0.10E+00    0.9     0.00212302       -81.1244109008 -8.11E+01
     2 Broy./Diag. 0.10E+00    1.0     0.00245618       -81.1240724513  3.38E-04
     3 Broy./Diag. 0.10E+00    1.1     0.00120234       -81.1252073058 -1.13E-03
     4 Broy./Diag. 0.10E+00    1.2     0.00034029       -81.1246729219  5.34E-04
     5 Broy./Diag. 0.10E+00    1.2     0.00021774       -81.1246686609  4.26E-06
     6 Broy./Diag. 0.10E+00    1.3     0.00017464       -81.1245731600  9.55E-05
     7 Broy./Diag. 0.10E+00    1.3     0.00008718       -81.1244889257  8.42E-05

  *** SCF run converged in     7 steps ***


  Electronic density on regular grids:        -56.0000000000        0.0000000000
  Core density on regular grids:               55.9999999890       -0.0000000110
  Total charge density on r-space grids:       -0.0000000110
  Total charge density g-space grids:          -0.0000000110

  Overlap energy of the core charge distribution:               0.00000003650295
  Self energy of the core charge distribution:               -173.72443963993129
  Core Hamiltonian energy:                                     37.67713835766010
  Hartree energy:                                              72.70732385213321
  Exchange-correlation energy:                                -17.56771007668405
  Dispersion energy:                                           -0.00500348354868
  Electronic entropic energy:                                  -0.21180152817284
  Fermi energy:                                                -0.17543806418888

  Total energy:                                               -81.12448892568062

 ENERGY| Total FORCE_EVAL ( QS ) energy [hartree]            -81.124414268439793

 MD| ***************************************************************************
 MD| Step number                                                               9
 MD| Time [fs]                                                          4.500000
 MD| Conserved quantity [hartree]                            -0.811102745144E+02
 MD| ---------------------------------------------------------------------------
 MD|                                          Instantaneous             Averages
 MD| CPU time per MD step [s]                      9.307821            14.332021
 MD| Energy drift per atom [K]          -0.502505432831E+00  -0.447704991821E+00
 MD| Potential energy [hartree]         -0.811244142684E+02  -0.811235920521E+02
 MD| Kinetic energy [hartree]            0.144257458942E-01   0.134941268769E-01
 MD| Temperature [K]                             337.428506           315.637271
 MD| ***************************************************************************

 Number of electrons:                                                         56
 Number of occupied orbitals:                                                 40
 Number of molecular orbitals:                                                48

 Number of orbital functions:                                                130
 Number of independent orbital functions:                                    130

 Extrapolation method: ASPC


 SCF WAVEFUNCTION OPTIMIZATION

  Step     Update method      Time    Convergence         Total energy    Change
  ------------------------------------------------------------------------------
     1 Broy./Diag. 0.10E+00    0.8     0.00255572       -81.1247357767 -8.11E+01
     2 Broy./Diag. 0.10E+00    1.0     0.00263907       -81.1261879291 -1.45E-03
     3 Broy./Diag. 0.10E+00    1.1     0.00121466       -81.1267735676 -5.86E-04
     4 Broy./Diag. 0.10E+00    1.2     0.00057283       -81.1261556087  6.18E-04
     5 Broy./Diag. 0.10E+00    1.2     0.00020770       -81.1258018757  3.54E-04
     6 Broy./Diag. 0.10E+00    1.3     0.00017330       -81.1255413559  2.61E-04
     7 Broy./Diag. 0.10E+00    1.3     0.00008304       -81.1252111204  3.30E-04

  *** SCF run converged in     7 steps ***


  Electronic density on regular grids:        -56.0000000000        0.0000000000
  Core density on regular grids:               55.9999999890       -0.0000000110
  Total charge density on r-space grids:       -0.0000000110
  Total charge density g-space grids:          -0.0000000110

  Overlap energy of the core charge distribution:               0.00000003560372
  Self energy of the core charge distribution:               -173.72443963993129
  Core Hamiltonian energy:                                     37.67634463846581
  Hartree energy:                                              72.70741031517476
  Exchange-correlation energy:                                -17.56780883915699
  Dispersion energy:                                           -0.00500156366210
  Electronic entropic energy:                                  -0.21172095113933
  Fermi energy:                                                -0.17543579373768

  Total energy:                                               -81.12521112040419

 ENERGY| Total FORCE_EVAL ( QS ) energy [hartree]            -81.124739295633447

 MD| ***************************************************************************
 MD| Step number                                                              10
 MD| Time [fs]                                                          5.000000
 MD| Conserved quantity [hartree]                            -0.811102745158E+02
 MD| ---------------------------------------------------------------------------
 MD|                                          Instantaneous             Averages
 MD| CPU time per MD step [s]                      9.350748            13.833894
 MD| Energy drift per atom [K]          -0.502549486357E+00  -0.453189441274E+00
 MD| Potential energy [hartree]         -0.811247392956E+02  -0.811237067764E+02
 MD| Kinetic energy [hartree]            0.146759369623E-01   0.136123078855E-01
 MD| Temperature [K]                             343.280654           318.401610
 MD| ***************************************************************************

 Number of electrons:                                                         56
 Number of occupied orbitals:                                                 40
 Number of molecular orbitals:                                                48

 Number of orbital functions:                                                130
 Number of independent orbital functions:                                    130

 Extrapolation method: ASPC


 SCF WAVEFUNCTION OPTIMIZATION

  Step     Update method      Time    Convergence         Total energy    Change
  ------------------------------------------------------------------------------
     1 Broy./Diag. 0.10E+00    0.8     0.00231337       -81.1250955508 -8.11E+01
     2 Broy./Diag. 0.10E+00    1.1     0.00229126       -81.1250701193  2.54E-05
     3 Broy./Diag. 0.10E+00    1.1     0.00107047       -81.1259856161 -9.15E-04
     4 Broy./Diag. 0.10E+00    1.2     0.00041551       -81.1255128077  4.73E-04
     5 Broy./Diag. 0.10E+00    1.2     0.00021868       -81.1254466511  6.62E-05
     6 Broy./Diag. 0.10E+00    1.3     0.00017406       -81.1253898651  5.68E-05
     7 Broy./Diag. 0.10E+00    1.3     0.00008530       -81.1252490856  1.41E-04

  *** SCF run converged in     7 steps ***


  Electronic density on regular grids:        -56.0000000000        0.0000000000
  Core density on regular grids:               55.9999999890       -0.0000000110
  Total charge density on r-space grids:       -0.0000000110
  Total charge density g-space grids:          -0.0000000110

  Overlap energy of the core charge distribution:               0.00000003473659
  Self energy of the core charge distribution:               -173.72443963993129
  Core Hamiltonian energy:                                     37.67592971794046
  Hartree energy:                                              72.70771641119123
  Exchange-correlation energy:                                -17.56782770500498
  Dispersion energy:                                           -0.00499959069898
  Electronic entropic energy:                                  -0.21163262736281
  Fermi energy:                                                -0.17543702072171

  Total energy:                                               -81.12524908557329

 ENERGY| Total FORCE_EVAL ( QS ) energy [hartree]            -81.125099221894033

 MD| ***************************************************************************
 MD| Step number                                                              11
 MD| Time [fs]                                                          5.500000
 MD| Conserved quantity [hartree]                            -0.811102745140E+02
 MD| ---------------------------------------------------------------------------
 MD|                                          Instantaneous             Averages
 MD| CPU time per MD step [s]                      9.259848            13.418071
 MD| Energy drift per atom [K]          -0.502493941427E+00  -0.457671668561E+00
 MD| Potential energy [hartree]         -0.811250992219E+02  -0.811238333624E+02
 MD| Kinetic energy [hartree]            0.149508961183E-01   0.137339977248E-01
 MD| Temperature [K]                             349.712145           321.248022
 MD| ***************************************************************************

 Number of electrons:                                                         56
 Number of occupied orbitals:                                                 40
 Number of molecular orbitals:                                                48

 Number of orbital functions:                                                130
 Number of independent orbital functions:                                    130

 Extrapolation method: ASPC


 SCF WAVEFUNCTION OPTIMIZATION

  Step     Update method      Time    Convergence         Total energy    Change
  ------------------------------------------------------------------------------
     1 Broy./Diag. 0.10E+00    0.8     0.00249254       -81.1254915556 -8.11E+01
     2 Broy./Diag. 0.10E+00    1.0     0.00169043       -81.1271131666 -1.62E-03
     3 Broy./Diag. 0.10E+00    1.1     0.00092319       -81.1276400562 -5.27E-04
     4 Broy./Diag. 0.10E+00    1.1     0.00045943       -81.1269921905  6.48E-04
     5 Broy./Diag. 0.10E+00    1.2     0.00021113       -81.1267193481  2.73E-04
     6 Broy./Diag. 0.10E+00    1.2     0.00016943       -81.1263745137  3.45E-04
     7 Broy./Diag. 0.10E+00    1.3     0.00008312       -81.1260208379  3.54E-04

  *** SCF run converged in     7 steps ***


  Electronic density on regular grids:        -56.0000000000        0.0000000000
  Core density on regular grids:               55.9999999890       -0.0000000110
  Total charge density on r-space grids:       -0.0000000110
  Total charge density g-space grids:          -0.0000000110

  Overlap energy of the core charge distribution:               0.00000003389801
  Self energy of the core charge distribution:               -173.72443963993129
  Core Hamiltonian energy:                                     37.67522883606927
  Hartree energy:                                              72.70771782428039
  Exchange-correlation energy:                                -17.56800674526830
  Dispersion energy:                                           -0.00499755873390
  Electronic entropic energy:                                  -0.21152862872894
  Fermi energy:                                                -0.17543356017532

  Total energy:                                               -81.12602083793249

 ENERGY| Total FORCE_EVAL ( QS ) energy [hartree]            -81.125495447850682

 MD| ***************************************************************************
 MD| Step number                                                              12
 MD| Time [fs]                                                          6.000000
 MD| Conserved quantity [hartree]                            -0.811102745094E+02
 MD| ---------------------------------------------------------------------------
 MD|                                          Instantaneous             Averages
 MD| CPU time per MD step [s]                      9.304030            13.075235
 MD| Energy drift per atom [K]          -0.502347198504E+00  -0.461394629389E+00
 MD| Potential energy [hartree]         -0.811254954479E+02  -0.811239718695E+02
 MD| Kinetic energy [hartree]            0.153426822396E-01   0.138680547677E-01
 MD| Temperature [K]                             358.876302           324.383712
 MD| ***************************************************************************

 Number of electrons:                                                         56
 Number of occupied orbitals:                                                 40
 Number of molecular orbitals:                                                48

 Number of orbital functions:                                                130
 Number of independent orbital functions:                                    130

 Extrapolation method: ASPC


 SCF WAVEFUNCTION OPTIMIZATION

  Step     Update method      Time    Convergence         Total energy    Change
  ------------------------------------------------------------------------------
     1 Broy./Diag. 0.10E+00    0.9     0.00248524       -81.1259261462 -8.11E+01
     2 Broy./Diag. 0.10E+00    1.0     0.00221105       -81.1260615556 -1.35E-04
     3 Broy./Diag. 0.10E+00    1.1     0.00112421       -81.1270565009 -9.95E-04
     4 Broy./Diag. 0.10E+00    1.2     0.00045432       -81.1264970309  5.59E-04
     5 Broy./Diag. 0.10E+00    1.2     0.00021708       -81.1264092710  8.78E-05
     6 Broy./Diag. 0.10E+00    1.3     0.00018942       -81.1263153311  9.39E-05
     7 Broy./Diag. 0.10E+00    1.3     0.00009090       -81.1261424315  1.73E-04

  *** SCF run converged in     7 steps ***


  Electronic density on regular grids:        -56.0000000000        0.0000000000
  Core density on regular grids:               55.9999999890       -0.0000000110
  Total charge density on r-space grids:       -0.0000000110
  Total charge density g-space grids:          -0.0000000110

  Overlap energy of the core charge distribution:               0.00000003308345
  Self energy of the core charge distribution:               -173.72443963993129
  Core Hamiltonian energy:                                     37.67487616823529
  Hartree energy:                                              72.70793670167103
  Exchange-correlation energy:                                -17.56810968040599
  Dispersion energy:                                           -0.00499545825935
  Electronic entropic energy:                                  -0.21141463376999
  Fermi energy:                                                -0.17543347101858

  Total energy:                                               -81.12614243153185

 ENERGY| Total FORCE_EVAL ( QS ) energy [hartree]            -81.125930325052664

 MD| ***************************************************************************
 MD| Step number                                                              13
 MD| Time [fs]                                                          6.500000
 MD| Conserved quantity [hartree]                            -0.811102745084E+02
 MD| ---------------------------------------------------------------------------
 MD|                                          Instantaneous             Averages
 MD| CPU time per MD step [s]                      9.290363            12.784091
 MD| Energy drift per atom [K]          -0.502316820862E+00  -0.464542490272E+00
 MD| Potential energy [hartree]         -0.811259303251E+02  -0.811241225199E+02
 MD| Kinetic energy [hartree]            0.158225486561E-01   0.140184004514E-01
 MD| Temperature [K]                             370.100721           327.900405
 MD| ***************************************************************************

 Number of electrons:                                                         56
 Number of occupied orbitals:                                                 40
 Number of molecular orbitals:                                                48

 Number of orbital functions:                                                130
 Number of independent orbital functions:                                    130

 Extrapolation method: ASPC


 SCF WAVEFUNCTION OPTIMIZATION

  Step     Update method      Time    Convergence         Total energy    Change
  ------------------------------------------------------------------------------
     1 Broy./Diag. 0.10E+00    0.8     0.00257001       -81.1263987120 -8.11E+01
     2 Broy./Diag. 0.10E+00    1.1     0.00155162       -81.1282910289 -1.89E-03
     3 Broy./Diag. 0.10E+00    1.1     0.00093628       -81.1286398826 -3.49E-04
     4 Broy./Diag. 0.10E+00    1.2     0.00045194       -81.1280990280  5.41E-04
     5 Broy./Diag. 0.10E+00    1.2     0.00021573       -81.1277588755  3.40E-04
     6 Broy./Diag. 0.10E+00    1.3     0.00018247       -81.1273764984  3.82E-04
     7 Broy./Diag. 0.10E+00    1.3     0.00010464       -81.1269661995  4.10E-04
     8 Broy./Diag. 0.10E+00    1.3     0.00006214       -81.1267611960  2.05E-04

  *** SCF run converged in     8 steps ***


  Electronic density on regular grids:        -56.0000000000        0.0000000000
  Core density on regular grids:               55.9999999890       -0.0000000110
  Total charge density on r-space grids:       -0.0000000110
  Total charge density g-space grids:          -0.0000000110

  Overlap energy of the core charge distribution:               0.00000003229469
  Self energy of the core charge distribution:               -173.72443963993129
  Core Hamiltonian energy:                                     37.67432715641677
  Hartree energy:                                              72.70796861986175
  Exchange-correlation energy:                                -17.56833782862961
  Dispersion energy:                                           -0.00499329535959
  Electronic entropic energy:                                  -0.21128809507784
  Fermi energy:                                                -0.17543099576799

  Total energy:                                               -81.12676119598194

 ENERGY| Total FORCE_EVAL ( QS ) energy [hartree]            -81.126403185993524

 MD| ***************************************************************************
 MD| Step number                                                              14
 MD| Time [fs]                                                          7.000000
 MD| Conserved quantity [hartree]                            -0.811102745015E+02
 MD| ---------------------------------------------------------------------------
 MD|                                          Instantaneous             Averages
 MD| CPU time per MD step [s]                     10.559696            12.625205
 MD| Energy drift per atom [K]          -0.502098714827E+00  -0.467225077740E+00
 MD| Potential energy [hartree]         -0.811264031860E+02  -0.811242854247E+02
 MD| Kinetic energy [hartree]            0.162710196278E-01   0.141793018212E-01
 MD| Temperature [K]                             380.590777           331.664003
 MD| ***************************************************************************

 Number of electrons:                                                         56
 Number of occupied orbitals:                                                 40
 Number of molecular orbitals:                                                48

 Number of orbital functions:                                                130
 Number of independent orbital functions:                                    130

 Extrapolation method: ASPC


 SCF WAVEFUNCTION OPTIMIZATION

  Step     Update method      Time    Convergence         Total energy    Change
  ------------------------------------------------------------------------------
     1 Broy./Diag. 0.10E+00    0.9     0.00259889       -81.1269116004 -8.11E+01
     2 Broy./Diag. 0.10E+00    1.0     0.00237896       -81.1279315596 -1.02E-03
     3 Broy./Diag. 0.10E+00    1.1     0.00046901       -81.1281324452 -2.01E-04
     4 Broy./Diag. 0.10E+00    1.2     0.00025631       -81.1279049786  2.27E-04
     5 Broy./Diag. 0.10E+00    1.2     0.00025670       -81.1275923422  3.13E-04
     6 Broy./Diag. 0.10E+00    1.3     0.00017550       -81.1273596564  2.33E-04
     7 Broy./Diag. 0.10E+00    1.2     0.00009138       -81.1271627708  1.97E-04

  *** SCF run converged in     7 steps ***


  Electronic density on regular grids:        -56.0000000000        0.0000000000
  Core density on regular grids:               55.9999999890       -0.0000000110
  Total charge density on r-space grids:       -0.0000000110
  Total charge density g-space grids:          -0.0000000110

  Overlap energy of the core charge distribution:               0.00000003152820
  Self energy of the core charge distribution:               -173.72443963993129
  Core Hamiltonian energy:                                     37.67399822765167
  Hartree energy:                                              72.70797893225142
  Exchange-correlation energy:                                -17.56856602662818
  Dispersion energy:                                           -0.00499106191851
  Electronic entropic energy:                                  -0.21114605561266
  Fermi energy:                                                -0.17542846958219

  Total energy:                                               -81.12716277080595

 ENERGY| Total FORCE_EVAL ( QS ) energy [hartree]            -81.126916467283579

 MD| ***************************************************************************
 MD| Step number                                                              15
 MD| Time [fs]                                                          7.500000
 MD| Conserved quantity [hartree]                            -0.811102744808E+02
 MD| ---------------------------------------------------------------------------
 MD|                                          Instantaneous             Averages
 MD| CPU time per MD step [s]                      9.320860            12.404916
 MD| Energy drift per atom [K]          -0.501443615010E+00  -0.469506313558E+00
 MD| Potential energy [hartree]         -0.811269164673E+02  -0.811244608275E+02
 MD| Kinetic energy [hartree]            0.170239603382E-01   0.143689457223E-01
 MD| Temperature [K]                             398.202599           336.099909
 MD| ***************************************************************************

 Number of electrons:                                                         56
 Number of occupied orbitals:                                                 40
 Number of molecular orbitals:                                                48

 Number of orbital functions:                                                130
 Number of independent orbital functions:                                    130

 Extrapolation method: ASPC


 SCF WAVEFUNCTION OPTIMIZATION

  Step     Update method      Time    Convergence         Total energy    Change
  ------------------------------------------------------------------------------
     1 Broy./Diag. 0.10E+00    0.8     0.00269929       -81.1274627515 -8.11E+01
     2 Broy./Diag. 0.10E+00    1.1     0.00213494       -81.1295908504 -2.13E-03
     3 Broy./Diag. 0.10E+00    1.1     0.00124500       -81.1295150622  7.58E-05
     4 Broy./Diag. 0.10E+00    1.2     0.00047456       -81.1292357772  2.79E-04
     5 Broy./Diag. 0.10E+00    1.2     0.00022170       -81.1288450660  3.91E-04
     6 Broy./Diag. 0.10E+00    1.3     0.00021833       -81.1283672906  4.78E-04
     7 Broy./Diag. 0.10E+00    1.3     0.00009715       -81.1279878477  3.79E-04

  *** SCF run converged in     7 steps ***


  Electronic density on regular grids:        -56.0000000000        0.0000000000
  Core density on regular grids:               55.9999999890       -0.0000000110
  Total charge density on r-space grids:       -0.0000000110
  Total charge density g-space grids:          -0.0000000110

  Overlap energy of the core charge distribution:               0.00000003078773
  Self energy of the core charge distribution:               -173.72443963993129
  Core Hamiltonian energy:                                     37.67348845035751
  Hartree energy:                                              72.70783911682646
  Exchange-correlation energy:                                -17.56889904591656
  Dispersion energy:                                           -0.00498877080916
  Electronic entropic energy:                                  -0.21099149234325
  Fermi energy:                                                -0.17542405407506

  Total energy:                                               -81.12798784768579

 ENERGY| Total FORCE_EVAL ( QS ) energy [hartree]            -81.127467922882659

 MD| ***************************************************************************
 MD| Step number                                                              16
 MD| Time [fs]                                                          8.000000
 MD| Conserved quantity [hartree]                            -0.811102744618E+02
 MD| ---------------------------------------------------------------------------
 MD|                                          Instantaneous             Averages
 MD| CPU time per MD step [s]                      9.349657            12.213962
 MD| Energy drift per atom [K]          -0.500843680038E+00  -0.471464898963E+00
 MD| Potential energy [hartree]         -0.811274679229E+02  -0.811246487710E+02
 MD| Kinetic energy [hartree]            0.178417492886E-01   0.145859959452E-01
 MD| Temperature [K]                             417.331267           341.176869
 MD| ***************************************************************************

 Number of electrons:                                                         56
 Number of occupied orbitals:                                                 40
 Number of molecular orbitals:                                                48

 Number of orbital functions:                                                130
 Number of independent orbital functions:                                    130

 Extrapolation method: ASPC


 SCF WAVEFUNCTION OPTIMIZATION

  Step     Update method      Time    Convergence         Total energy    Change
  ------------------------------------------------------------------------------
     1 Broy./Diag. 0.10E+00    1.0     0.00251318       -81.1280549049 -8.11E+01
     2 Broy./Diag. 0.10E+00    1.0     0.00208327       -81.1293110786 -1.26E-03
     3 Broy./Diag. 0.10E+00    1.1     0.00134172       -81.1295565634 -2.45E-04
     4 Broy./Diag. 0.10E+00    1.2     0.00039331       -81.1293003357  2.56E-04
     5 Broy./Diag. 0.10E+00    1.2     0.00023378       -81.1290360269  2.64E-04
     6 Broy./Diag. 0.10E+00    1.3     0.00022395       -81.1286934995  3.43E-04
     7 Broy./Diag. 0.10E+00    1.2     0.00009518       -81.1284136438  2.80E-04

  *** SCF run converged in     7 steps ***


  Electronic density on regular grids:        -56.0000000000        0.0000000000
  Core density on regular grids:               55.9999999890       -0.0000000110
  Total charge density on r-space grids:       -0.0000000110
  Total charge density g-space grids:          -0.0000000110

  Overlap energy of the core charge distribution:               0.00000003006970
  Self energy of the core charge distribution:               -173.72443963993129
  Core Hamiltonian energy:                                     37.67326396771956
  Hartree energy:                                              72.70778292654580
  Exchange-correlation energy:                                -17.56921337555676
  Dispersion energy:                                           -0.00498641309797
  Electronic entropic energy:                                  -0.21082635206888
  Fermi energy:                                                -0.17542051934788

  Total energy:                                               -81.12841364375848

 ENERGY| Total FORCE_EVAL ( QS ) energy [hartree]            -81.128060475420185

 MD| ***************************************************************************
 MD| Step number                                                              17
 MD| Time [fs]                                                          8.500000
 MD| Conserved quantity [hartree]                            -0.811102744495E+02
 MD| ---------------------------------------------------------------------------
 MD|                                          Instantaneous             Averages
 MD| CPU time per MD step [s]                      9.420415            12.049636
 MD| Energy drift per atom [K]          -0.500454554096E+00  -0.473170172794E+00
 MD| Potential energy [hartree]         -0.811280604754E+02  -0.811248494595E+02
 MD| Kinetic energy [hartree]            0.183384755357E-01   0.148067300388E-01
 MD| Temperature [K]                             428.950049           346.339997
 MD| ***************************************************************************

 Number of electrons:                                                         56
 Number of occupied orbitals:                                                 40
 Number of molecular orbitals:                                                48

 Number of orbital functions:                                                130
 Number of independent orbital functions:                                    130

 Extrapolation method: ASPC


 SCF WAVEFUNCTION OPTIMIZATION

  Step     Update method      Time    Convergence         Total energy    Change
  ------------------------------------------------------------------------------
     1 Broy./Diag. 0.10E+00    0.8     0.00271838       -81.1286875301 -8.11E+01
     2 Broy./Diag. 0.10E+00    1.0     0.00269175       -81.1305120610 -1.82E-03
     3 Broy./Diag. 0.10E+00    1.1     0.00154940       -81.1312157081 -7.04E-04
     4 Broy./Diag. 0.10E+00    1.2     0.00049103       -81.1306117347  6.04E-04
     5 Broy./Diag. 0.10E+00    1.2     0.00021598       -81.1302035759  4.08E-04
     6 Broy./Diag. 0.10E+00    1.3     0.00020485       -81.1297948751  4.09E-04
     7 Broy./Diag. 0.10E+00    1.3     0.00010805       -81.1293102248  4.85E-04
     8 Broy./Diag. 0.10E+00    1.3     0.00007734       -81.1290676927  2.43E-04

  *** SCF run converged in     8 steps ***


  Electronic density on regular grids:        -56.0000000000        0.0000000000
  Core density on regular grids:               55.9999999890       -0.0000000110
  Total charge density on r-space grids:       -0.0000000110
  Total charge density g-space grids:          -0.0000000110

  Overlap energy of the core charge distribution:               0.00000002937517
  Self energy of the core charge distribution:               -173.72443963993129
  Core Hamiltonian energy:                                     37.67295105200232
  Hartree energy:                                              72.70765908467203
  Exchange-correlation energy:                                -17.56960944929848
  Dispersion energy:                                           -0.00498399452357
  Electronic entropic energy:                                  -0.21064773105253
  Fermi energy:                                                -0.17541664713202

  Total energy:                                               -81.12906769267643

 ENERGY| Total FORCE_EVAL ( QS ) energy [hartree]            -81.128693541514977

 MD| ***************************************************************************
 MD| Step number                                                              18
 MD| Time [fs]                                                          9.000000
 MD| Conserved quantity [hartree]                            -0.811102744406E+02
 MD| ---------------------------------------------------------------------------
 MD|                                          Instantaneous             Averages
 MD| CPU time per MD step [s]                     10.496237            11.963336
 MD| Energy drift per atom [K]          -0.500175135439E+00  -0.474670448497E+00
 MD| Potential energy [hartree]         -0.811286935415E+02  -0.811250630196E+02
 MD| Kinetic energy [hartree]            0.191630518099E-01   0.150487479149E-01
 MD| Temperature [K]                             448.237477           352.000968
 MD| ***************************************************************************

 Number of electrons:                                                         56
 Number of occupied orbitals:                                                 40
 Number of molecular orbitals:                                                48

 Number of orbital functions:                                                130
 Number of independent orbital functions:                                    130

 Extrapolation method: ASPC


 SCF WAVEFUNCTION OPTIMIZATION

  Step     Update method      Time    Convergence         Total energy    Change
  ------------------------------------------------------------------------------
     1 Broy./Diag. 0.10E+00    0.8     0.00264602       -81.1293614407 -8.11E+01
     2 Broy./Diag. 0.10E+00    1.0     0.00235460       -81.1309721240 -1.61E-03
     3 Broy./Diag. 0.10E+00    1.1     0.00070664       -81.1313232705 -3.51E-04
     4 Broy./Diag. 0.10E+00    1.2     0.00044671       -81.1309181017  4.05E-04
     5 Broy./Diag. 0.10E+00    1.2     0.00022862       -81.1306638866  2.54E-04
     6 Broy./Diag. 0.10E+00    1.2     0.00023681       -81.1301212946  5.43E-04
     7 Broy./Diag. 0.10E+00    1.3     0.00009737       -81.1297652042  3.56E-04

  *** SCF run converged in     7 steps ***


  Electronic density on regular grids:        -56.0000000000        0.0000000000
  Core density on regular grids:               55.9999999890       -0.0000000110
  Total charge density on r-space grids:       -0.0000000110
  Total charge density g-space grids:          -0.0000000110

  Overlap energy of the core charge distribution:               0.00000002870341
  Self energy of the core charge distribution:               -173.72443963993129
  Core Hamiltonian energy:                                     37.67275750384571
  Hartree energy:                                              72.70739613329796
  Exchange-correlation energy:                                -17.57004985749269
  Dispersion energy:                                           -0.00498151523679
  Electronic entropic energy:                                  -0.21045358743500
  Fermi energy:                                                -0.17541065667169

  Total energy:                                               -81.12976520423867

 ENERGY| Total FORCE_EVAL ( QS ) energy [hartree]            -81.129367945529438

 MD| ***************************************************************************
 MD| Step number                                                              19
[...]
 MD| Step number                                                              20
 MD| Time [fs]                                                         10.000000
 MD| Conserved quantity [hartree]                            -0.811102744053E+02
 MD| ---------------------------------------------------------------------------
 MD|                                          Instantaneous             Averages
 MD| CPU time per MD step [s]                     10.529309            11.757169
 MD| Energy drift per atom [K]          -0.499059937422E+00  -0.477136910459E+00
 MD| Potential energy [hartree]         -0.811300745450E+02  -0.811255288421E+02
 MD| Kinetic energy [hartree]            0.200415242681E-01   0.155283256003E-01
 MD| Temperature [K]                             468.785575           363.218633
 MD| ***************************************************************************

 Number of electrons:                                                         56
 Number of occupied orbitals:                                                 40
 Number of molecular orbitals:                                                48

 Number of orbital functions:                                                130
 Number of independent orbital functions:                                    130

 Extrapolation method: ASPC


 SCF WAVEFUNCTION OPTIMIZATION

  Step     Update method      Time    Convergence         Total energy    Change
  ------------------------------------------------------------------------------
     1 Broy./Diag. 0.10E+00    0.8     0.00276381       -81.1308108736 -8.11E+01
     2 Broy./Diag. 0.10E+00    1.1     0.00254650       -81.1328510023 -2.04E-03
     3 Broy./Diag. 0.10E+00    1.1     0.00053458       -81.1329911054 -1.40E-04
     4 Broy./Diag. 0.10E+00    1.2     0.00027767       -81.1326117746  3.79E-04
     5 Broy./Diag. 0.10E+00    1.2     0.00030151       -81.1321908931  4.21E-04
     6 Broy./Diag. 0.10E+00    1.3     0.00021861       -81.1316430899  5.48E-04
     7 Broy./Diag. 0.10E+00    1.3     0.00009888       -81.1312685293  3.75E-04

  *** SCF run converged in     7 steps ***


  Electronic density on regular grids:        -56.0000000000        0.0000000000
  Core density on regular grids:               55.9999999890       -0.0000000110
  Total charge density on r-space grids:       -0.0000000110
  Total charge density g-space grids:          -0.0000000110

  Overlap energy of the core charge distribution:               0.00000002744904
  Self energy of the core charge distribution:               -173.72443963993129
  Core Hamiltonian energy:                                     37.67246276336745
  Hartree energy:                                              72.70678140627152
  Exchange-correlation energy:                                -17.57106748014756
  Dispersion energy:                                           -0.00497646838491
  Electronic entropic energy:                                  -0.21003355677594
  Fermi energy:                                                -0.17539914441097

  Total energy:                                               -81.13126852934964

 ENERGY| Total FORCE_EVAL ( QS ) energy [hartree]            -81.130818120099278

 MD| ***************************************************************************
 MD| Step number                                                              21
 MD| Time [fs]                                                         10.500000
 MD| Conserved quantity [hartree]                            -0.811102743833E+02
 MD| ---------------------------------------------------------------------------
 MD|                                          Instantaneous             Averages
 MD| CPU time per MD step [s]                      9.281383            11.639274
 MD| Energy drift per atom [K]          -0.498364637882E+00  -0.478147754622E+00
 MD| Potential energy [hartree]         -0.811308181201E+02  -0.811257807125E+02
 MD| Kinetic energy [hartree]            0.209644878752E-01   0.157871904705E-01
 MD| Temperature [K]                             490.374354           369.273668
 MD| ***************************************************************************

 Number of electrons:                                                         56
 Number of occupied orbitals:                                                 40
 Number of molecular orbitals:                                                48

 Number of orbital functions:                                                130
 Number of independent orbital functions:                                    130

 Extrapolation method: ASPC


 SCF WAVEFUNCTION OPTIMIZATION

  Step     Update method      Time    Convergence         Total energy    Change
  ------------------------------------------------------------------------------
     1 Broy./Diag. 0.10E+00    0.8     0.00293770       -81.1316004781 -8.11E+01
     2 Broy./Diag. 0.10E+00    1.1     0.00223490       -81.1338524369 -2.25E-03
     3 Broy./Diag. 0.10E+00    1.1     0.00073087       -81.1340224660 -1.70E-04
     4 Broy./Diag. 0.10E+00    1.2     0.00058993       -81.1335637700  4.59E-04
     5 Broy./Diag. 0.10E+00    1.2     0.00026002       -81.1332284311  3.35E-04
     6 Broy./Diag. 0.10E+00    1.3     0.00022760       -81.1326423215  5.86E-04
     7 Broy./Diag. 0.10E+00    1.2     0.00009808       -81.1321676418  4.75E-04

  *** SCF run converged in     7 steps ***


  Electronic density on regular grids:        -56.0000000000        0.0000000000
  Core density on regular grids:               55.9999999890       -0.0000000110
  Total charge density on r-space grids:       -0.0000000110
  Total charge density g-space grids:          -0.0000000110

  Overlap energy of the core charge distribution:               0.00000002685325
  Self energy of the core charge distribution:               -173.72443963993129
  Core Hamiltonian energy:                                     37.67236425228165
  Hartree energy:                                              72.70635048562976
  Exchange-correlation energy:                                -17.57167227445519
  Dispersion energy:                                           -0.00497385629270
  Electronic entropic energy:                                  -0.20980419550729
  Fermi energy:                                                -0.17539159319740

  Total energy:                                               -81.13216764175466

 ENERGY| Total FORCE_EVAL ( QS ) energy [hartree]            -81.131608326426672

 MD| ***************************************************************************
 MD| Step number                                                              22
 MD| Time [fs]                                                         11.000000
 MD| Conserved quantity [hartree]                            -0.811102743810E+02
 MD| ---------------------------------------------------------------------------
 MD|                                          Instantaneous             Averages
 MD| CPU time per MD step [s]                      9.231342            11.529823
 MD| Energy drift per atom [K]          -0.498291816803E+00  -0.479063393812E+00
 MD| Potential energy [hartree]         -0.811316083264E+02  -0.811260456041E+02
 MD| Kinetic energy [hartree]            0.219297481818E-01   0.160663976392E-01
 MD| Temperature [K]                             512.952482           375.804523
 MD| ***************************************************************************

 Number of electrons:                                                         56
 Number of occupied orbitals:                                                 40
 Number of molecular orbitals:                                                48

 Number of orbital functions:                                                130
 Number of independent orbital functions:                                    130

 Extrapolation method: ASPC


 SCF WAVEFUNCTION OPTIMIZATION

  Step     Update method      Time    Convergence         Total energy    Change
  ------------------------------------------------------------------------------
     1 Broy./Diag. 0.10E+00    0.8     0.00284698       -81.1324308696 -8.11E+01
     2 Broy./Diag. 0.10E+00    1.0     0.00337759       -81.1339423513 -1.51E-03
     3 Broy./Diag. 0.10E+00    1.2     0.00165499       -81.1353290288 -1.39E-03
     4 Broy./Diag. 0.10E+00    1.1     0.00050640       -81.1343750237  9.54E-04
     5 Broy./Diag. 0.10E+00    1.2     0.00021226       -81.1340762208  2.99E-04
     6 Broy./Diag. 0.10E+00    1.3     0.00025629       -81.1335796398  4.97E-04
     7 Broy./Diag. 0.10E+00    1.3     0.00012238       -81.1330838364  4.96E-04
     8 Broy./Diag. 0.10E+00    1.3     0.00007568       -81.1328119134  2.72E-04

  *** SCF run converged in     8 steps ***


  Electronic density on regular grids:        -56.0000000000        0.0000000000
  Core density on regular grids:               55.9999999890       -0.0000000110
  Total charge density on r-space grids:       -0.0000000110
  Total charge density g-space grids:          -0.0000000110

  Overlap energy of the core charge distribution:               0.00000002628028
  Self energy of the core charge distribution:               -173.72443963993129
  Core Hamiltonian energy:                                     37.67245013351268
  Hartree energy:                                              72.70599950450780
  Exchange-correlation energy:                                -17.57229121843795
  Dispersion energy:                                           -0.00497119843100
  Electronic entropic energy:                                  -0.20956349801334
  Fermi energy:                                                -0.17538479137576

  Total energy:                                               -81.13281191338667

 ENERGY| Total FORCE_EVAL ( QS ) energy [hartree]            -81.132439271717715

 MD| ***************************************************************************
 MD| Step number                                                              23
 MD| Time [fs]                                                         11.500000
 MD| Conserved quantity [hartree]                            -0.811102743667E+02
 MD| ---------------------------------------------------------------------------
 MD|                                          Instantaneous             Averages
 MD| CPU time per MD step [s]                     10.657237            11.491884
 MD| Energy drift per atom [K]          -0.497841104058E+00  -0.479879815997E+00
 MD| Potential energy [hartree]         -0.811324392717E+02  -0.811263235896E+02
 MD| Kinetic energy [hartree]            0.226396052771E-01   0.163521892756E-01
 MD| Temperature [K]                             529.556547           382.489393
 MD| ***************************************************************************

 Number of electrons:                                                         56
 Number of occupied orbitals:                                                 40
 Number of molecular orbitals:                                                48

 Number of orbital functions:                                                130
 Number of independent orbital functions:                                    130

 Extrapolation method: ASPC


 SCF WAVEFUNCTION OPTIMIZATION

  Step     Update method      Time    Convergence         Total energy    Change
  ------------------------------------------------------------------------------
     1 Broy./Diag. 0.10E+00    0.8     0.00306505       -81.1333023129 -8.11E+01
     2 Broy./Diag. 0.10E+00    1.1     0.00291233       -81.1359877728 -2.69E-03
     3 Broy./Diag. 0.10E+00    1.1     0.00114999       -81.1360073598 -1.96E-05
     4 Broy./Diag. 0.10E+00    1.4     0.00051315       -81.1356649587  3.42E-04
     5 Broy./Diag. 0.10E+00    1.3     0.00024579       -81.1351876902  4.77E-04
     6 Broy./Diag. 0.10E+00    1.2     0.00024537       -81.1343798893  8.08E-04
     7 Broy./Diag. 0.10E+00    1.3     0.00009794       -81.1338927832  4.87E-04

  *** SCF run converged in     7 steps ***


  Electronic density on regular grids:        -56.0000000000        0.0000000000
  Core density on regular grids:               55.9999999890       -0.0000000110
  Total charge density on r-space grids:       -0.0000000110
  Total charge density g-space grids:          -0.0000000110

  Overlap energy of the core charge distribution:               0.00000002572958
  Self energy of the core charge distribution:               -173.72443963993129
  Core Hamiltonian energy:                                     37.67246927179935
  Hartree energy:                                              72.70535559582800
  Exchange-correlation energy:                                -17.57300908434350
  Dispersion energy:                                           -0.00496849666004
  Electronic entropic energy:                                  -0.20930368451419
  Fermi energy:                                                -0.17537681261405

  Total energy:                                               -81.13389278320396

 ENERGY| Total FORCE_EVAL ( QS ) energy [hartree]            -81.133311337001999

 MD| ***************************************************************************
 MD| Step number                                                              24
 MD| Time [fs]                                                         12.000000
 MD| Conserved quantity [hartree]                            -0.811102743350E+02
 MD| ---------------------------------------------------------------------------
 MD|                                          Instantaneous             Averages
 MD| CPU time per MD step [s]                      9.655594            11.415372
 MD| Energy drift per atom [K]          -0.496840255570E+00  -0.480586500979E+00
 MD| Potential energy [hartree]         -0.811333113370E+02  -0.811266147458E+02
 MD| Kinetic energy [hartree]            0.238539782676E-01   0.166647638169E-01
 MD| Temperature [K]                             557.961599           389.800735
 MD| ***************************************************************************

 Number of electrons:                                                         56
 Number of occupied orbitals:                                                 40
 Number of molecular orbitals:                                                48

 Number of orbital functions:                                                130
 Number of independent orbital functions:                                    130

 Extrapolation method: ASPC


 SCF WAVEFUNCTION OPTIMIZATION

  Step     Update method      Time    Convergence         Total energy    Change
  ------------------------------------------------------------------------------
     1 Broy./Diag. 0.10E+00    0.8     0.00311987       -81.1342219909 -8.11E+01
     2 Broy./Diag. 0.10E+00    1.0     0.00234206       -81.1369098263 -2.69E-03
     3 Broy./Diag. 0.10E+00    1.1     0.00166016       -81.1365871699  3.23E-04
     4 Broy./Diag. 0.10E+00    1.2     0.00053803       -81.1364065196  1.81E-04
     5 Broy./Diag. 0.10E+00    1.2     0.00021262       -81.1359430939  4.63E-04
     6 Broy./Diag. 0.10E+00    1.3     0.00022006       -81.1353214423  6.22E-04
     7 Broy./Diag. 0.10E+00    1.3     0.00014141       -81.1348977707  4.24E-04
     8 Broy./Diag. 0.10E+00    1.3     0.00008855       -81.1345703590  3.27E-04

  *** SCF run converged in     8 steps ***


  Electronic density on regular grids:        -56.0000000000        0.0000000000
  Core density on regular grids:               55.9999999890       -0.0000000110
  Total charge density on r-space grids:       -0.0000000110
  Total charge density g-space grids:          -0.0000000110

  Overlap energy of the core charge distribution:               0.00000002519662
  Self energy of the core charge distribution:               -173.72443963993129
  Core Hamiltonian energy:                                     37.67273390793968
  Hartree energy:                                              72.70487767421521
  Exchange-correlation energy:                                -17.57374408833280
  Dispersion energy:                                           -0.00496573250118
  Electronic entropic energy:                                  -0.20903931401420
  Fermi energy:                                                -0.17536869866590

  Total energy:                                               -81.13457035903171

 ENERGY| Total FORCE_EVAL ( QS ) energy [hartree]            -81.134231742200299

 MD| ***************************************************************************
 MD| Step number                                                              25
 MD| Time [fs]                                                         12.500000
 MD| Conserved quantity [hartree]                            -0.811102743218E+02
 MD| ---------------------------------------------------------------------------
 MD|                                          Instantaneous             Averages
 MD| CPU time per MD step [s]                     10.732992            11.388077
 MD| Energy drift per atom [K]          -0.496421939809E+00  -0.481219918532E+00
 MD| Potential energy [hartree]         -0.811342317422E+02  -0.811269194256E+02
 MD| Kinetic energy [hartree]            0.248106966001E-01   0.169906011283E-01
 MD| Temperature [K]                             580.339925           397.422303
 MD| ***************************************************************************

 Number of electrons:                                                         56
 Number of occupied orbitals:                                                 40
 Number of molecular orbitals:                                                48

 Number of orbital functions:                                                130
 Number of independent orbital functions:                                    130

 Extrapolation method: ASPC


 SCF WAVEFUNCTION OPTIMIZATION

  Step     Update method      Time    Convergence         Total energy    Change
  ------------------------------------------------------------------------------
     1 Broy./Diag. 0.10E+00    0.9     0.00296844       -81.1351860198 -8.11E+01
     2 Broy./Diag. 0.10E+00    1.1     0.00301244       -81.1375084637 -2.32E-03
     3 Broy./Diag. 0.10E+00    1.2     0.00167799       -81.1387315396 -1.22E-03
     4 Broy./Diag. 0.10E+00    1.2     0.00042695       -81.1376903929  1.04E-03
     5 Broy./Diag. 0.10E+00    1.2     0.00023576       -81.1372751763  4.15E-04
     6 Broy./Diag. 0.10E+00    1.3     0.00022353       -81.1364100235  8.65E-04
     7 Broy./Diag. 0.10E+00    1.3     0.00015382       -81.1358761390  5.34E-04
     8 Broy./Diag. 0.10E+00    1.3     0.00007719       -81.1356201296  2.56E-04

  *** SCF run converged in     8 steps ***


  Electronic density on regular grids:        -56.0000000000        0.0000000000
  Core density on regular grids:               55.9999999890       -0.0000000110
  Total charge density on r-space grids:       -0.0000000110
  Total charge density g-space grids:          -0.0000000110

  Overlap energy of the core charge distribution:               0.00000002468371
  Self energy of the core charge distribution:               -173.72443963993129
  Core Hamiltonian energy:                                     37.67292972175161
  Hartree energy:                                              72.70417169761832
  Exchange-correlation energy:                                -17.57456887993284
  Dispersion energy:                                           -0.00496292166682
  Electronic entropic energy:                                  -0.20875355991332
  Fermi energy:                                                -0.17535973287532

  Total energy:                                               -81.13562012961067
