 DBCSR| CPU Multiplication driver                                           BLAS (U)
 DBCSR| Multrec recursion limit                                              512 (U)
 DBCSR| Multiplication stack size                                           1000 (D)
 DBCSR| Maximum elements for images                                    UNLIMITED (U)
 DBCSR| Multiplicative factor virtual images                                   1 (U)
 DBCSR| Use multiplication densification                                       T (D)
 DBCSR| Multiplication size stacks                                             3 (U)
 DBCSR| Use memory pool for CPU allocation                                     F (U)
 DBCSR| Number of 3D layers                                               SINGLE (U)
 DBCSR| Use MPI memory allocation                                              F (U)
 DBCSR| Use RMA algorithm                                                      F (U)
 DBCSR| Use Communication thread                                               T (U)
 DBCSR| Communication thread load                                             53 (D)
 DBCSR| MPI: My process id                                                     0
 DBCSR| MPI: Number of processes                                               1
 DBCSR| OMP: Current number of threads                                        10
 DBCSR| OMP: Max number of threads                                            10
 DBCSR| Split modifier for TAS multiplication algorithm                  1.0E+00 (U)


  **** **** ******  **  PROGRAM STARTED AT               2025-09-26 10:19:28.286
 ***** ** ***  *** **   PROGRAM STARTED ON                                   Mac
 **    ****   ******    PROGRAM STARTED BY                           jdmusgraves
 ***** **    ** ** **   PROGRAM PROCESS ID                                  3031
  **** **  *******  **  PROGRAM STARTED IN /Users/jdmusgraves/Downloads/local_sh
                                           akedown_kit

 CP2K| version string:                                       CP2K version 2025.1
 CP2K| source code revision number:                                             
 CP2K| cp2kflags: omp libint fftw3 libxc parallel scalapack no_statm_access     
 CP2K| is freely available from                            https://www.cp2k.org/
 CP2K| Program compiled at                                   2025-01-01 12:26:53
 CP2K| Program compiled on                                                      
 CP2K| Program compiled for                                                arm64
 CP2K| Data directory path      /opt/homebrew/Cellar/cp2k/2025.1/share/cp2k/data
 CP2K| Input file name                                inputs/sp_smoke_compat.inp

 GLOBAL| Force Environment number                                              1
 GLOBAL| Basis set file name                                        BASIS_MOLOPT
 GLOBAL| Potential file name                                      GTH_POTENTIALS
 GLOBAL| MM Potential file name                                     MM_POTENTIAL
 GLOBAL| Coordinate file name                          inputs/as2se3_cluster.xyz
 GLOBAL| Method name                                                        CP2K
 GLOBAL| Project name                                            sp_smoke_compat
 GLOBAL| Run type                                                         ENERGY
 GLOBAL| FFT library                                                       FFTW3
 GLOBAL| Diagonalization library                                       ScaLAPACK
 GLOBAL| DGEMM library                                                      BLAS
 GLOBAL| Orthonormality check for eigenvectors                          DISABLED
 GLOBAL| Matrix multiplication library                                 ScaLAPACK
 GLOBAL| All-to-all communication in single precision                          F
 GLOBAL| FFTs using library dependent lengths                                  F
 GLOBAL| Grid backend                                                       AUTO
 GLOBAL| Global print level                                                  LOW
 GLOBAL| MPI I/O enabled                                                       T
 GLOBAL| Total number of message passing processes                             1
 GLOBAL| Number of threads for this process                                   10
 GLOBAL| This output is from process                                           0
 GLOBAL| OpenMP stack size per thread (OMP_STACKSIZE)                    default
 GLOBAL| CPU model name                                                  UNKNOWN
 GLOBAL| CPUID                                                              2000

 MEMORY| system memory details [Kb]
 MEMORY|                        rank 0           min           max       average
 MEMORY| MemTotal                    0             0             0             0
 MEMORY| MemFree                     0             0             0             0
 MEMORY| Buffers                     0             0             0             0
 MEMORY| Cached                      0             0             0             0
 MEMORY| Slab                        0             0             0             0
 MEMORY| SReclaimable                0             0             0             0
 MEMORY| MemLikelyFree               0             0             0             0


 GENERATE|  Preliminary Number of Bonds generated:                             0
 GENERATE|  Achieved consistency in connectivity generation.

 *******************************************************************************
 *******************************************************************************
 **                                                                           **
 **     #####                         ##              ##                      **
 **    ##   ##            ##          ##              ##                      **
 **   ##     ##                       ##            ######                    **
 **   ##     ##  ##   ##  ##   #####  ##  ##   ####   ##    #####    #####    **
 **   ##     ##  ##   ##  ##  ##      ## ##   ##      ##   ##   ##  ##   ##   **
 **   ##  ## ##  ##   ##  ##  ##      ####     ###    ##   ######   ######    **
 **    ##  ###   ##   ##  ##  ##      ## ##      ##   ##   ##       ##        **
 **     #######   #####   ##   #####  ##  ##  ####    ##    #####   ##        **
 **           ##                                                    ##        **
 **                                                                           **
 **                                                ... make the atoms dance   **
 **                                                                           **
 **            Copyright (C) by CP2K developers group (2000-2025)             **
 **                      J. Chem. Phys. 152, 194103 (2020)                    **
 **                                                                           **
 *******************************************************************************


 TOTAL NUMBERS AND MAXIMUM NUMBERS

  Total number of            - Atomic kinds:                                   2
                             - Atoms:                                          5
                             - Shell sets:                                     5
                             - Shells:                                        25
                             - Primitive Cartesian functions:                 20
                             - Cartesian basis functions:                     70
                             - Spherical basis functions:                     65

  Maximum angular momentum of the orbital basis functions:                     2


 SCF PARAMETERS         Density guess:                                    ATOMIC
                        --------------------------------------------------------
                        max_scf:                                             150
                        max_scf_history:                                       0
                        max_diis:                                              4
                        --------------------------------------------------------
                        eps_scf:                                        1.00E-06
                        eps_scf_history:                                0.00E+00
                        eps_diis:                                       1.00E-01
                        eps_eigval:                                     1.00E-05
                        --------------------------------------------------------
                        level_shift [a.u.]:                             0.000000
                        --------------------------------------------------------
                        No outer SCF

 Number of electrons:                                                         28
 Number of occupied orbitals:                                                 14
 Number of molecular orbitals:                                                14

 Number of orbital functions:                                                 65
 Number of independent orbital functions:                                     65

 Extrapolation method: initial_guess


 SCF WAVEFUNCTION OPTIMIZATION

  ----------------------------------- OT ---------------------------------------
  Minimizer      : DIIS                : direct inversion
                                         in the iterative subspace
                                         using   7 DIIS vectors
                                         safer DIIS on
  Preconditioner : FULL_SINGLE_INVERSE : inversion of 
                                         H + eS - 2*(Sc)(c^T*H*c+const)(Sc)^T
  Precond_solver : DEFAULT
  stepsize       :    0.08000000                  energy_gap     :    0.08000000
  eps_taylor     :   0.10000E-15                  max_taylor     :             4
  ----------------------------------- OT ---------------------------------------

  Step     Update method      Time    Convergence         Total energy    Change
  ------------------------------------------------------------------------------
     1 OT DIIS     0.80E-01    1.3     0.12432584       -39.8533952055 -3.99E+01
     2 OT DIIS     0.80E-01    1.3     0.07619624       -40.3022788166 -4.49E-01
     3 OT DIIS     0.80E-01    1.3     0.04246610       -40.4666147541 -1.64E-01
     4 OT DIIS     0.80E-01    1.3     0.03660776       -40.5593909774 -9.28E-02
     5 OT DIIS     0.80E-01    1.3     0.03343819       -40.6483462725 -8.90E-02
     6 OT DIIS     0.80E-01    1.3     0.02724529       -40.7374527835 -8.91E-02
     7 OT DIIS     0.80E-01    1.3     0.01906303       -40.8003770681 -6.29E-02
     8 OT DIIS     0.80E-01    1.4     0.00996290       -40.8409438735 -4.06E-02
     9 OT DIIS     0.80E-01    1.4     0.00772727       -40.8458958771 -4.95E-03
    10 OT DIIS     0.80E-01    1.4     0.00493406       -40.8524370170 -6.54E-03
    11 OT DIIS     0.80E-01    1.3     0.00295303       -40.8565629782 -4.13E-03
    12 OT DIIS     0.80E-01    1.3     0.00191699       -40.8581811897 -1.62E-03
    13 OT DIIS     0.80E-01    1.3     0.00116233       -40.8586865963 -5.05E-04
    14 OT DIIS     0.80E-01    1.3     0.00072345       -40.8589099031 -2.23E-04
    15 OT DIIS     0.80E-01    1.3     0.00048124       -40.8589986414 -8.87E-05
    16 OT DIIS     0.80E-01    1.3     0.00033962       -40.8590423991 -4.38E-05
    17 OT DIIS     0.80E-01    1.4     0.00021536       -40.8590690267 -2.66E-05
    18 OT DIIS     0.80E-01    1.3     0.00014742       -40.8590789832 -9.96E-06
    19 OT DIIS     0.80E-01    1.3     0.00009633       -40.8590835996 -4.62E-06
    20 OT DIIS     0.80E-01    1.3     0.00006704       -40.8590853402 -1.74E-06
    21 OT DIIS     0.80E-01    1.4     0.00004237       -40.8590862755 -9.35E-07
    22 OT DIIS     0.80E-01    1.4     0.00002879       -40.8590866251 -3.50E-07
    23 OT DIIS     0.80E-01    1.4     0.00001987       -40.8590867763 -1.51E-07
    24 OT DIIS     0.80E-01    1.4     0.00001426       -40.8590868434 -6.71E-08
    25 OT DIIS     0.80E-01    1.3     0.00001011       -40.8590868773 -3.39E-08
    26 OT DIIS     0.80E-01    1.4     0.00000737       -40.8590868946 -1.73E-08
    27 OT DIIS     0.80E-01    1.3     0.00000513       -40.8590869051 -1.05E-08
    28 OT DIIS     0.80E-01    1.3     0.00000372       -40.8590869099 -4.83E-09
    29 OT DIIS     0.80E-01    1.3     0.00000285       -40.8590869122 -2.29E-09
    30 OT DIIS     0.80E-01    1.3     0.00000212       -40.8590869137 -1.53E-09
    31 OT DIIS     0.80E-01    1.3     0.00000141       -40.8590869148 -1.06E-09
    32 OT DIIS     0.80E-01    1.4     0.00000107       -40.8590869152 -3.74E-10
    33 OT DIIS     0.80E-01    1.3     0.00000077       -40.8590869154 -2.31E-10

  *** SCF run converged in    33 steps ***


  Electronic density on regular grids:        -28.0000000000        0.0000000000
  Core density on regular grids:               27.9999999999       -0.0000000001
  Total charge density on r-space grids:       -0.0000000001
  Total charge density g-space grids:          -0.0000000001

  Overlap energy of the core charge distribution:               0.00000000405870
  Self energy of the core charge distribution:                -86.86221981996565
  Core Hamiltonian energy:                                     19.30430955763376
  Hartree energy:                                              35.92214930794463
  Exchange-correlation energy:                                 -9.22155061352389
  Dispersion energy:                                           -0.00177535154733

  Total energy:                                               -40.85908691539976

 ENERGY| Total FORCE_EVAL ( QS ) energy [hartree]            -40.859086915399764

 -------------------------------------------------------------------------------
 -                                                                             -
 -                                DBCSR STATISTICS                             -
 -                                                                             -
 -------------------------------------------------------------------------------
 COUNTER                                    TOTAL       BLAS       SMM       ACC
 flops    14 x    14 x    14              1597008     100.0%      0.0%      0.0%     
 flops    13 x    13 x    14              2484300     100.0%      0.0%      0.0%     
 flops    14 x    14 x    65              3363360     100.0%      0.0%      0.0%     
 flops    13 x    14 x    65              4022200     100.0%      0.0%      0.0%     
 flops    13 x    14 x    14              4204200     100.0%      0.0%      0.0%     
 flops    13 x    14 x    13              8517600     100.0%      0.0%      0.0%     
 flops inhomo. stacks                           0       0.0%      0.0%      0.0%
 flops total                        24.188668E+06     100.0%      0.0%      0.0%
 flops max/rank                     24.188668E+06     100.0%      0.0%      0.0%
 matmuls inhomo. stacks                         0       0.0%      0.0%      0.0%
 matmuls total                               3743     100.0%      0.0%      0.0%
 number of processed stacks                  1953     100.0%      0.0%      0.0%
 average stack size                                     1.9       0.0       0.0
 marketing flops                    25.870348E+06
 -------------------------------------------------------------------------------
 # multiplications                            730
 max memory usage/rank               0.000000E+00
 # max total images/rank                        1
 # max 3D layers                                1
 # MPI messages exchanged                       0
 -------------------------------------------------------------------------------
 -                                                                             -
 -                      DBCSR MESSAGE PASSING PERFORMANCE                      -
 -                                                                             -
 -------------------------------------------------------------------------------
 ROUTINE             CALLS      AVE VOLUME [Bytes]
 MP_Bcast                7                     12.
 MP_Allreduce         3943                      8.
 MP_Alltoall          2508                    782.
 MP_ISend             2916                     88.
 MP_IRecv             2916                     88.
 -------------------------------------------------------------------------------

 -------------------------------------------------------------------------------
 -                                                                             -
 -                                DBM STATISTICS                               -
 -                                                                             -
 -------------------------------------------------------------------------------
    M  x    N  x    K                                          COUNT     PERCENT
 -------------------------------------------------------------------------------

 -------------------------------------------------------------------------------
 -                                                                             -
 -                                GRID STATISTICS                              -
 -                                                                             -
 -------------------------------------------------------------------------------
 LP    KERNEL             BACKEND                              COUNT     PERCENT
 4     collocate ortho    CPU                                   8126      50.73%
 4     integrate ortho    CPU                                   7887      49.24%
 0     collocate general  CPU                                      5       0.03%
 -------------------------------------------------------------------------------

 MEMORY| Estimated peak process memory [MiB]                                   0

 -------------------------------------------------------------------------------
 -                                                                             -
 -                         MESSAGE PASSING PERFORMANCE                         -
 -                                                                             -
 -------------------------------------------------------------------------------

 ROUTINE             CALLS      AVE VOLUME [Bytes]
 MP_Group                4
 MP_Bcast             1163                   1465.
 MP_Allreduce         3397                    108.
 MP_Sync                37
 MP_comm_split          33
 -------------------------------------------------------------------------------


 -------------------------------------------------------------------------------
 -                                                                             -
 -                           R E F E R E N C E S                               -
 -                                                                             -
 -------------------------------------------------------------------------------
 
 CP2K version 2025.1, the CP2K developers group (2025).
 CP2K is freely available from https://www.cp2k.org/ .
 
 T. D. Kuehne, M. Iannuzzi, M. Del Ben, V. V. Rybkin, P. Seewald, F. Stein, T. 
 Laino, R. Z. Khaliullin, O. Schuett, F. Schiffmann, D. Golze, J. Wilhelm, S. 
 Chulkov, M. H. Bani-Hashemian, V. Weber, U. Borstnik, M. Taillefumier, A. S. 
 Jakobovits, A. Lazzaro, H. Pabst, T. Mueller, R. Schade, M. Guidon, S. 
 Andermatt, N. Holmberg, G. K. Schenter, A. Hehn, A. Bussy, F. Belleflamme, G. 
 Tabacchi, A. Gloess, M. Lass, I. Bethune, C. J. Mundy, C. Plessl, M. Watkins, 
 J. VandeVondele, M. Krack, J. Hutter.
 J. Chem. Phys. 152, 194103 (2020).
 CP2K: An electronic structure and molecular dynamics software package - 
 Quickstep: Efficient and accurate electronic structure calculations.
 https://doi.org/10.1063/5.0007045

 L. Goerigk, A. Hansen, C. Bauer, S. Ehrlich, A. Najibi, S. Grimme.
 Phys. Chem. Chem. Phys. 19, 32184-32215 (2017).
 A look at the density functional theory zoo with the advanced GMTKN55 database 
 for general main group thermochemistry, kinetics and noncovalent interactions.
 https://doi.org/10.1039/C7CP04913G

 O. Schuett, P. Messmer, J. Hutter, J. VandeVondele.
 Electronic Structure Calculations on Graphics Processing Units, 173-190 (2016).
 GPU-Accelerated Sparse Matrix-Matrix Multiplication for Linear Scaling Density 
 Functional Theory.
 https://doi.org/10.1002/9781118670712.ch8

 J. Hutter, M. Iannuzzi, F. Schiffmann, J. VandeVondele.
 WIREs Comput Mol Sci. 4, 15-25 (2014).
 CP2K: atomistic simulations of condensed matter systems.
 https://doi.org/10.1002/wcms.1159

 U. Borstnik, J. VandeVondele, V. Weber, J. Hutter.
 Parallel Comput. 40, 47-58 (2014).
 Sparse matrix multiplication: The distributed block-compressed sparse row 
 library.
 https://doi.org/10.1016/j.parco.2014.03.012

 S. Grimme, S. Ehrlich, L. Goerigk.
 J. Comput. Chem. 32, 1456 (2011).
 Effect of the damping function in dispersion corrected density functional 
 theory.
 https://doi.org/10.1002/jcc.21759

 S. Grimme, J. Antony, S. Ehrlich, H. Krieg.
 J. Chem. Phys. 132, 154104 (2010).
 A consistent and accurate ab initio parametrization of density functional 
 dispersion correction (DFT-D) for the 94 elements H-Pu.
 https://doi.org/10.1063/1.3382344

 J. VandeVondele, J. Hutter.
 J. Chem. Phys. 127, 114105 (2007).
 Gaussian basis sets for accurate calculations on molecular systems in gas and 
 condensed phases.
 https://doi.org/10.1063/1.2770708

 J. VandeVondele, M. Krack, F. Mohamed, M. Parrinello, T. Chassaing, J. Hutter.
 Comput. Phys. Commun. 167, 103-128 (2005).
 QUICKSTEP: Fast and accurate density functional calculations using a mixed 
 Gaussian and plane waves approach.
 https://doi.org/10.1016/j.cpc.2004.12.014

 M. Krack.
 Theor. Chem. Acc. 114, 145-152 (2005).
 Pseudopotentials for H to Kr optimized for gradient-corrected 
 exchange-correlation functionals.
 https://doi.org/10.1007/s00214-005-0655-y

 M. Frigo, S. G. Johnson.
 Proc. IEEE 93, 216-231 (2005).
 The design and implementation of FFTW3.
 https://doi.org/10.1109/JPROC.2004.840301

 J. VandeVondele, J. Hutter.
 J. Chem. Phys. 118, 4365-4369 (2003).
 An efficient orbital transformation method for electronic structure 
 calculations.
 https://doi.org/10.1063/1.1543154

 C. Hartwigsen, S. Goedecker, J. Hutter.
 Phys. Rev. B 58, 3641-3662 (1998).
 Relativistic separable dual-space Gaussian pseudopotentials from H to Rn.
 https://doi.org/10.1103/PhysRevB.58.3641

 G. Lippert, J. Hutter, M. Parrinello.
 Mol. Phys. 92, 477-487 (1997).
 A hybrid Gaussian and plane wave density functional scheme.
 https://doi.org/10.1080/002689797170220

 S. Goedecker, M. Teter, J. Hutter.
 Phys. Rev. B 54, 1703-1710 (1996).
 Separable dual-space Gaussian pseudopotentials.
 https://doi.org/10.1103/PhysRevB.54.1703

 J. P. Perdew, K. Burke, M. Ernzerhof.
 Phys. Rev. Lett. 77, 3865-3868 (1996).
 Generalized gradient approximation made simple.
 https://doi.org/10.1103/PhysRevLett.77.3865


 -------------------------------------------------------------------------------
 -                                                                             -
 -                                T I M I N G                                  -
 -                                                                             -
 -------------------------------------------------------------------------------
 SUBROUTINE                       CALLS  ASD         SELF TIME        TOTAL TIME
                                MAXIMUM       AVERAGE  MAXIMUM  AVERAGE  MAXIMUM
 CP2K                                 1  1.0    0.044    0.044   46.860   46.860
 qs_energies                          1  2.0    0.003    0.003   45.233   45.233
 scf_env_do_scf                       1  3.0    0.000    0.000   44.602   44.602
 scf_env_do_scf_inner_loop           33  4.0    0.004    0.004   43.317   43.317
 qs_ks_update_qs_env                 34  5.0    0.000    0.000   32.550   32.550
 rebuild_ks_matrix                   33  6.0    0.000    0.000   32.549   32.549
 qs_ks_build_kohn_sham_matrix        33  7.0    0.005    0.005   32.549   32.549
 fft_wrap_pw1pw2                    567 10.3    0.007    0.007   26.182   26.182
 fft_wrap_pw1pw2_250                366 11.7    3.244    3.244   25.240   25.240
 qs_vxc_create                       33  8.0    0.001    0.001   23.948   23.948
 xc_vxc_pw_create                    33  9.0    1.449    1.449   23.947   23.947
 xc_pw_derive                       198 11.0    0.002    0.002   14.978   14.978
 fft3d_s                            568 12.2   14.373   14.373   14.377   14.377
 xc_rho_set_and_dset_create          33 10.0    0.536    0.536   12.200   12.200
 xc_pw_divergence                    33 10.0    0.001    0.001   10.139   10.139
 qs_rho_update_rho_low               34  5.0    0.000    0.000    7.987    7.987
 calculate_rho_elec                  34  6.0    1.297    1.297    7.987    7.987
 density_rs2pw                       34  7.0    0.002    0.002    5.514    5.514
 pw_scatter_s                       298 12.7    5.259    5.259    5.259    5.259
 qs_scf_new_mos                      33  5.0    0.000    0.000    4.371    4.371
 qs_scf_loop_do_ot                   33  6.0    0.000    0.000    4.371    4.371
 ot_scf_mini                         33  7.0    0.000    0.000    4.245    4.245
 xc_functional_eval                  33 11.0    0.000    0.000    4.074    4.074
 pbe_lda_eval                        33 12.0    4.074    4.074    4.074    4.074
 dbcsr_multiply_generic             730 10.1    0.070    0.070    3.424    3.424
 ot_mini                             33  8.0    0.000    0.000    3.230    3.230
 sum_up_and_integrate                33  8.0    0.001    0.001    3.197    3.197
 integrate_v_rspace                  33  9.0    0.006    0.006    3.106    3.106
 potential_pw2rs                     33 10.0    0.038    0.038    2.936    2.936
 pw_poisson_solve                    33  8.0    0.001    0.001    2.815    2.815
 qs_ot_get_derivative                33  9.0    0.000    0.000    2.350    2.350
 pw_gather_s                        269 11.8    2.296    2.296    2.296    2.296
 qs_ot_get_derivative_diag           32 10.0    0.001    0.001    1.909    1.909
 pw_integral_ab_c1d_c1d_gs           33  9.0    1.629    1.629    1.629    1.629
 pw_derive                          297 11.3    1.561    1.561    1.561    1.561
 qs_init_subsys                       1  2.0    0.003    0.003    1.542    1.542
 qs_env_setup                         1  3.0    0.001    0.001    1.514    1.514
 qs_env_rebuild_pw_env                2  3.5    0.000    0.000    1.513    1.513
 pw_env_rebuild                       1  5.0    0.003    0.003    1.513    1.513
 pw_grid_setup                        4  6.0    0.000    0.000    1.509    1.509
 pw_grid_setup_internal               4  7.0    0.016    0.016    1.508    1.508
 make_m2s                          1460 11.1    0.011    0.011    1.486    1.486
 pw_grid_sort                         4  8.0    1.015    1.015    1.401    1.401
 dbcsr_finalize                    1453 11.6    0.362    0.362    1.294    1.294
 init_scf_loop                        1  4.0    0.000    0.000    1.284    1.284
 grid_collocate_task_list            34  7.0    1.176    1.176    1.176    1.176
 pw_copy                            495 10.5    1.126    1.126    1.126    1.126
 -------------------------------------------------------------------------------

 The number of warnings for this run is : 0
 
 -------------------------------------------------------------------------------
  **** **** ******  **  PROGRAM ENDED AT                 2025-09-26 10:20:15.384
 ***** ** ***  *** **   PROGRAM RAN ON                                       Mac
 **    ****   ******    PROGRAM RAN BY                               jdmusgraves
 ***** **    ** ** **   PROGRAM PROCESS ID                                  3031
  **** **  *******  **  PROGRAM STOPPED IN /Users/jdmusgraves/Downloads/local_sh
                                           akedown_kit
