 DBCSR| CPU Multiplication driver                                           BLAS (U)
 DBCSR| Multrec recursion limit                                              512 (U)
 DBCSR| Multiplication stack size                                           1000 (D)
 DBCSR| Maximum elements for images                                    UNLIMITED (U)
 DBCSR| Multiplicative factor virtual images                                   1 (U)
 DBCSR| Use multiplication densification                                       T (D)
 DBCSR| Multiplication size stacks                                             3 (U)
 DBCSR| Use memory pool for CPU allocation                                     F (U)
 DBCSR| Number of 3D layers                                               SINGLE (U)
 DBCSR| Use MPI memory allocation                                              F (U)
 DBCSR| Use RMA algorithm                                                      F (U)
 DBCSR| Use Communication thread                                               T (U)
 DBCSR| Communication thread load                                             53 (D)
 DBCSR| MPI: My process id                                                     0
 DBCSR| MPI: Number of processes                                               1
 DBCSR| OMP: Current number of threads                                        10
 DBCSR| OMP: Max number of threads                                            10
 DBCSR| Split modifier for TAS multiplication algorithm                  1.0E+00 (U)


  **** **** ******  **  PROGRAM STARTED AT               2025-09-25 15:08:30.649
 ***** ** ***  *** **   PROGRAM STARTED ON                                   Mac
 **    ****   ******    PROGRAM STARTED BY                           jdmusgraves
 ***** **    ** ** **   PROGRAM PROCESS ID                                 79356
  **** **  *******  **  PROGRAM STARTED IN /Users/jdmusgraves/Downloads/local_sh
                                           akedown_kit

 CP2K| version string:                                       CP2K version 2025.1
 CP2K| source code revision number:                                             
 CP2K| cp2kflags: omp libint fftw3 libxc parallel scalapack no_statm_access     
 CP2K| is freely available from                            https://www.cp2k.org/
 CP2K| Program compiled at                                   2025-01-01 12:26:53
 CP2K| Program compiled on                                                      
 CP2K| Program compiled for                                                arm64
 CP2K| Data directory path      /opt/homebrew/Cellar/cp2k/2025.1/share/cp2k/data
 CP2K| Input file name                                        sp_smoke_fixed.inp

 GLOBAL| Force Environment number                                              1
 GLOBAL| Basis set file name                                        BASIS_MOLOPT
 GLOBAL| Potential file name                                      GTH_POTENTIALS
 GLOBAL| MM Potential file name                                     MM_POTENTIAL
 GLOBAL| Coordinate file name                          inputs/as2se3_cluster.xyz
 GLOBAL| Method name                                                        CP2K
 GLOBAL| Project name                                                   sp_smoke
 GLOBAL| Run type                                                         ENERGY
 GLOBAL| FFT library                                                       FFTW3
 GLOBAL| Diagonalization library                                       ScaLAPACK
 GLOBAL| DGEMM library                                                      BLAS
 GLOBAL| Orthonormality check for eigenvectors                          DISABLED
 GLOBAL| Matrix multiplication library                                 ScaLAPACK
 GLOBAL| All-to-all communication in single precision                          F
 GLOBAL| FFTs using library dependent lengths                                  F
 GLOBAL| Grid backend                                                       AUTO
 GLOBAL| Global print level                                                  LOW
 GLOBAL| MPI I/O enabled                                                       T
 GLOBAL| Total number of message passing processes                             1
 GLOBAL| Number of threads for this process                                   10
 GLOBAL| This output is from process                                           0
 GLOBAL| OpenMP stack size per thread (OMP_STACKSIZE)                    default
 GLOBAL| CPU model name                                                  UNKNOWN
 GLOBAL| CPUID                                                              2000

 MEMORY| system memory details [Kb]
 MEMORY|                        rank 0           min           max       average
 MEMORY| MemTotal                    0             0             0             0
 MEMORY| MemFree                     0             0             0             0
 MEMORY| Buffers                     0             0             0             0
 MEMORY| Cached                      0             0             0             0
 MEMORY| Slab                        0             0             0             0
 MEMORY| SReclaimable                0             0             0             0
 MEMORY| MemLikelyFree               0             0             0             0


 GENERATE|  Preliminary Number of Bonds generated:                             0
 GENERATE|  Achieved consistency in connectivity generation.

 *******************************************************************************
 *******************************************************************************
 **                                                                           **
 **     #####                         ##              ##                      **
 **    ##   ##            ##          ##              ##                      **
 **   ##     ##                       ##            ######                    **
 **   ##     ##  ##   ##  ##   #####  ##  ##   ####   ##    #####    #####    **
 **   ##     ##  ##   ##  ##  ##      ## ##   ##      ##   ##   ##  ##   ##   **
 **   ##  ## ##  ##   ##  ##  ##      ####     ###    ##   ######   ######    **
 **    ##  ###   ##   ##  ##  ##      ## ##      ##   ##   ##       ##        **
 **     #######   #####   ##   #####  ##  ##  ####    ##    #####   ##        **
 **           ##                                                    ##        **
 **                                                                           **
 **                                                ... make the atoms dance   **
 **                                                                           **
 **            Copyright (C) by CP2K developers group (2000-2025)             **
 **                      J. Chem. Phys. 152, 194103 (2020)                    **
 **                                                                           **
 *******************************************************************************


 TOTAL NUMBERS AND MAXIMUM NUMBERS

  Total number of            - Atomic kinds:                                   2
                             - Atoms:                                          5
                             - Shell sets:                                     5
                             - Shells:                                        25
                             - Primitive Cartesian functions:                 20
                             - Cartesian basis functions:                     70
                             - Spherical basis functions:                     65

  Maximum angular momentum of the orbital basis functions:                     2


 SCF PARAMETERS         Density guess:                                    ATOMIC
                        --------------------------------------------------------
                        max_scf:                                              50
                        max_scf_history:                                       0
                        max_diis:                                              4
                        --------------------------------------------------------
                        eps_scf:                                        1.00E-06
                        eps_scf_history:                                0.00E+00
                        eps_diis:                                       1.00E-01
                        eps_eigval:                                     1.00E-05
                        --------------------------------------------------------
                        level_shift [a.u.]:                             0.000000
                        --------------------------------------------------------
                        No outer SCF

 Number of electrons:                                                         28
 Number of occupied orbitals:                                                 14
 Number of molecular orbitals:                                                14

 Number of orbital functions:                                                 65
 Number of independent orbital functions:                                     65

 Extrapolation method: initial_guess


 SCF WAVEFUNCTION OPTIMIZATION

  ----------------------------------- OT ---------------------------------------
  Minimizer      : DIIS                : direct inversion
                                         in the iterative subspace
                                         using   7 DIIS vectors
                                         safer DIIS on
  Preconditioner : FULL_ALL            : diagonalization, state selective
  Precond_solver : DEFAULT
  stepsize       :    0.15000000                  energy_gap     :    0.08000000
  eps_taylor     :   0.10000E-15                  max_taylor     :             4
  ----------------------------------- OT ---------------------------------------

  Step     Update method      Time    Convergence         Total energy    Change
  ------------------------------------------------------------------------------
     1 OT DIIS     0.15E+00    0.6     0.15040705       -39.1140999985 -3.91E+01
     2 OT DIIS     0.15E+00    0.6     0.21140980       -39.3248464973 -2.11E-01
     3 OT DIIS     0.15E+00    0.6     0.09984626       -40.2371563492 -9.12E-01
     4 OT DIIS     0.15E+00    0.6     0.07219456       -40.3849189993 -1.48E-01
     5 OT DIIS     0.15E+00    0.6     0.03311280       -40.4962881149 -1.11E-01
     6 OT DIIS     0.15E+00    0.6     0.02596534       -40.5402247857 -4.39E-02
     7 OT DIIS     0.15E+00    0.6     0.02249779       -40.5828683628 -4.26E-02
     8 OT DIIS     0.15E+00    0.6     0.01775913       -40.6122529385 -2.94E-02
     9 OT DIIS     0.15E+00    0.6     0.01832646       -40.6422546686 -3.00E-02
    10 OT DIIS     0.15E+00    0.6     0.01248901       -40.6478508360 -5.60E-03
    11 OT DIIS     0.15E+00    0.6     0.00687205       -40.6589095595 -1.11E-02
    12 OT DIIS     0.15E+00    0.6     0.00753950       -40.6626964613 -3.79E-03
    13 OT DIIS     0.15E+00    0.7     0.00409927       -40.6644790530 -1.78E-03
    14 OT DIIS     0.15E+00    0.6     0.00303924       -40.6653221891 -8.43E-04
    15 OT DIIS     0.15E+00    0.6     0.00199907       -40.6660339440 -7.12E-04
    16 OT DIIS     0.15E+00    0.6     0.00162941       -40.6663648650 -3.31E-04
    17 OT DIIS     0.15E+00    0.6     0.00129823       -40.6666286091 -2.64E-04
    18 OT DIIS     0.15E+00    0.6     0.00119370       -40.6667896749 -1.61E-04
    19 OT DIIS     0.15E+00    0.6     0.00099106       -40.6669499071 -1.60E-04
    20 OT DIIS     0.15E+00    0.6     0.00085119       -40.6671159354 -1.66E-04
    21 OT DIIS     0.15E+00    0.6     0.00087240       -40.6672860703 -1.70E-04
    22 OT DIIS     0.15E+00    0.6     0.00076412       -40.6674046474 -1.19E-04
    23 OT DIIS     0.15E+00    0.6     0.00068627       -40.6675005185 -9.59E-05
    24 OT DIIS     0.15E+00    0.6     0.00059433       -40.6675962330 -9.57E-05
    25 OT DIIS     0.15E+00    0.6     0.00051504       -40.6676455312 -4.93E-05
    26 OT DIIS     0.15E+00    0.6     0.00042035       -40.6677024608 -5.69E-05
    27 OT DIIS     0.15E+00    0.6     0.00044433       -40.6677287175 -2.63E-05
    28 OT DIIS     0.15E+00    0.6     0.00035184       -40.6677617204 -3.30E-05
    29 OT DIIS     0.15E+00    0.6     0.00031250       -40.6677814539 -1.97E-05
    30 OT DIIS     0.15E+00    0.6     0.00027861       -40.6677944412 -1.30E-05
    31 OT DIIS     0.15E+00    0.6     0.00026496       -40.6678042866 -9.85E-06
    32 OT DIIS     0.15E+00    0.6     0.00023584       -40.6678158180 -1.15E-05
    33 OT DIIS     0.15E+00    0.6     0.00022344       -40.6678220067 -6.19E-06
    34 OT DIIS     0.15E+00    0.6     0.00018493       -40.6678313831 -9.38E-06
    35 OT DIIS     0.15E+00    0.6     0.00017386       -40.6678368367 -5.45E-06
    36 OT DIIS     0.15E+00    0.7     0.00014848       -40.6678394471 -2.61E-06
    37 OT DIIS     0.15E+00    0.6     0.00013538       -40.6678427202 -3.27E-06
    38 OT DIIS     0.15E+00    0.6     0.00012369       -40.6678444066 -1.69E-06
    39 OT DIIS     0.15E+00    0.6     0.00011282       -40.6678458026 -1.40E-06
    40 OT DIIS     0.15E+00    0.6     0.00010106       -40.6678464168 -6.14E-07
    41 OT DIIS     0.15E+00    0.6     0.00009244       -40.6678464524 -3.56E-08
    42 OT DIIS     0.15E+00    0.6     0.00007185       -40.6678467761 -3.24E-07
    43 OT DIIS     0.15E+00    0.6     0.00006953       -40.6678469874 -2.11E-07
    44 OT DIIS     0.15E+00    0.6     0.00006680       -40.6678470015 -1.41E-08
    45 OT DIIS     0.15E+00    0.6     0.00005808       -40.6678472448 -2.43E-07
    46 OT DIIS     0.15E+00    0.6     0.00005663       -40.6678474638 -2.19E-07
    47 OT DIIS     0.15E+00    0.6     0.00005312       -40.6678475879 -1.24E-07
    48 OT DIIS     0.15E+00    0.6     0.00004878       -40.6678478236 -2.36E-07
    49 OT DIIS     0.15E+00    0.6     0.00004793       -40.6678480934 -2.70E-07
    50 OT DIIS     0.15E+00    0.6     0.00004561       -40.6678483441 -2.51E-07

  Leaving inner SCF loop after reaching    50 steps.


  Electronic density on regular grids:        -28.0000000001       -0.0000000001
  Core density on regular grids:               27.9999999944       -0.0000000056
  Total charge density on r-space grids:       -0.0000000056
  Total charge density g-space grids:          -0.0000000056

  Overlap energy of the core charge distribution:               0.00000023816623
  Self energy of the core charge distribution:                -86.86221981996565
  Core Hamiltonian energy:                                     20.45837741993242
  Hartree energy:                                              35.29936847971651
  Exchange-correlation energy:                                 -9.56252349738879
  Dispersion energy:                                           -0.00085116459327

  Total energy:                                               -40.66784834413256

 *******************************************************************************
 *   ___                                                                       *
 *  /   \                                                                      *
 * [ABORT]                                                                     *
 *  \___/     SCF run NOT converged. To continue the calculation regardless,   *
 *    |             please set the keyword IGNORE_CONVERGENCE_FAILURE.         *
 *  O/|                                                                        *
 * /| |                                                                        *
 * / \                                                            qs_scf.F:611 *
 *******************************************************************************


 ===== Routine Calling Stack ===== 

            3 scf_env_do_scf
            2 qs_energies
            1 CP2K
